 &FCI NORB=   4,NELEC= 4,MS2=0,
  ORBSYM=1,1,1,1,
  ISYM=1,
 &END
 0.5536276908947153    1    1    1    1
 0.03913468076836162    2    1    2    1
 0.4659947041129221    2    2    1    1
 0.5034194119680473    2    2    2    2
 0.02253944609886555    3    1    3    1
 -2.914335439641036e-15    3    2    1    1
 -1.83325576941229e-14    3    2    2    2
 0.1941426045815437    3    2    3    2
 0.4857430664892216    3    3    1    1
 0.514999201152236    3    3    2    2
 1.634803403760543e-14    3    3    3    2
 0.546841472643898    3    3    3    3
 1.294971074816686e-15    4    1    2    2
 -0.01587701579488641    4    1    3    2
 -1.588139342256767e-15    4    1    3    3
 0.01819373310831567    4    1    4    1
 -0.003496441976514088    4    2    3    1
 0.07362874660974392    4    2    4    2
 -0.003921702460873993    4    3    2    1
 2.995867443011946e-15    4    3    4    2
 0.03310303673903264    4    3    4    3
 0.502563902139897    4    4    1    1
 0.4945465559072628    4    4    2    2
 1.064198642403147e-15    4    4    3    2
 0.5079911181959947    4    4    3    3
 0.5619626755097425    4    4    4    4
 -1.932503972662853    1    1  0  0
 -1.797363381301038    2    2  0  0
 2.70919879518787e-15    3    1  0  0
 -7.382983113757291e-15    3    2  0  0
 -1.776527291540041    3    3  0  0
 -1.446377162114303    4    4  0  0
 -69.63134342266709  0  0  0  0
