                  Welcome to Q-Chem
     A Quantum Leap Into The Future Of Chemistry


 Q-Chem 4.4, Q-Chem, Inc., Pleasanton, CA (2016)

 Y. Shao,  Z. Gan,  E. Epifanovsky,  A. T. B. Gilbert,  M. Wormit,  
 J. Kussmann,  A. W. Lange,  A. Behn,  J. Deng,  X. Feng,  D. Ghosh,  
 M. Goldey,  P. R. Horn,  L. D. Jacobson,  I. Kaliman,  F.Rob,  
 R. Z. Khaliullin,  T. Kus,  A. Landau,  J. Liu,  E. I. Proynov,  Y. M. Rhee,  
 R. M. Richard,  M. A. Rohrdanz,  R. P. Steele,  E. J. Sundstrom,  
 H. L. Woodcock III,  P. M. Zimmerman,  D. Zuev,  B. Albrecht,  E. Alguire,  
 B. Austin,  S. A. Baeppler,  G. J. O. Beran,  Y. A. Bernard,  E. Berquist,  
 K. Brandhorst,  K. B. Bravaya,  S. T. Brown,  D. Casanova,  C.-M. Chang,  
 Y. Chen,  S. H. Chien,  K. D. Closser,  M. P. Coons,  D. L. Crittenden,  
 S. Dasgupta,  M. Diedenhofen,  R. A. DiStasio Jr.,  H. Do,  A. D. Dutoi,  
 R. G. Edgar,  P.-T. Fang,  S. Fatehi,  Q. Feng,  L. Fusti-Molnar,  
 A. Ghysels,  A. Golubeva-Zadorozhnaya,  J. Gomes,  A. Gunina,  
 M. W. D. Hanson-Heine,  P. H. P. Harbach,  A. W. Hauser,  E. G. Hohenstein,  
 Z. C. Holden,  K. Hui,  T.-C. Jagau,  H. Ji,  B. Kaduk,  K. Khistyaev,  
 Jaehoon Kim,  Jihan Kim,  R. A. King,  P. Klunzinger,  D. Kosenkov,  
 T. Kowalczyk,  C. M. Krauter,  A. Kunitsa,  K. U. Lao,  A. Laurent,  
 K. V. Lawler,  D. Lefrancois,  S. Lehtola,  S. V. Levchenko,  C. Y. Lin,  
 Y.-S. Lin,  F. Liu,  E. Livshits,  R. C. Lochan,  A. Luenser,  P. Manohar,  
 S. F. Manzer,  S.-P. Mao,  Y. Mao,  N. Mardirossian,  A. V. Marenich,  
 L. A. Martinez-Martinez,  S. A. Maurer,  N. J. Mayhall,  J.-M. Mewes,  
 A. F. Morrison,  K. Nanda,  C. M. Oana,  R. Olivares-Amaya,  D. P. O'Neill,  
 J. A. Parkhill,  T. M. Perrine,  R. Peverati,  P. A. Pieniazek,  F. Plasser,  
 A. Prociuk,  D. R. Rehn,  E. Rosta,  N. J. Russ,  N. Sergueev,  
 S. M. Sharada,  S. Sharma,  D. W. Small,  A. Sodt,  T. Stauch,  T. Stein,  
 D. Stuck,  Y.-C. Su,  A. J. W. Thom,  T. Tsuchimochi,  L. Vogt,  O. Vydrov,  
 T. Wang,  M. A. Watson,  J. Wenzel,  A. White,  C. F. Williams,  
 V. Vanovschi,  S. Yeganeh,  S. R. Yost,  Z.-Q. You,  I. Y. Zhang,  X. Zhang,  
 Y. Zhao,  B. R. Brooks,  G. K. L. Chan,  D. M. Chipman,  C. J. Cramer,  
 W. A. Goddard III,  M. S. Gordon,  W. J. Hehre,  A. Klamt,  
 H. F. Schaefer III,  M. W. Schmidt,  C. D. Sherrill,  D. G. Truhlar,  
 A. Warshel,  X. Xu,  A. Aspuru-Guzik,  R. Baer,  A. T. Bell,  N. A. Besley,  
 J.-D. Chai,  A. Dreuw,  B. D. Dunietz,  T. R. Furlani,  S. R. Gwaltney,  
 C.-P. Hsu,  Y. Jung,  J. Kong,  D. S. Lambrecht,  W. Liang,  C. Ochsenfeld,  
 V. A. Rassolov,  L. V. Slipchenko,  J. E. Subotnik,  T. Van Voorhis,  
 J. M. Herbert,  A. I. Krylov,  P. M. W. Gill,  M. Head-Gordon

 Contributors to earlier versions of Q-Chem not listed above: 
 R. D. Adamson,  J. Baker,  E. F. C. Byrd,  A. K. Chakraborty,  C.-L. Cheng,  
 H. Dachsel,  R. J. Doerksen,  G. Hawkins,  A. Heyden,  S. Hirata,  
 G. Kedziora,  F. J. Keil,  C. Kelley,  P. P. Korambath,  W. Kurlancheek,  
 A. M. Lee,  M. S. Lee,  D. Liotard,  I. Lotan,  P. E. Maslen,  N. Nair,  
 D. Neuhauser,  R. Olson,  B. Peters,  J. Ritchie,  N. E. Schultz,  
 N. Shenvi,  A. C. Simmonett,  K. S. Thanthiriwatte,  Q. Wu,  W. Zhang

 Please cite Q-Chem as follows:
 Y. Shao et al., Mol. Phys. 113, 184-215 (2015)
 DOI: 10.1080/00268976.2014.952696

 Q-Chem 4.4.0 for Intel X86 EM64T Linux

 Parts of Q-Chem use Armadillo 5.200.1 (Boston Tea Smuggler).
 http://arma.sourceforge.net/

 Q-Chem begins on Fri Jan  6 11:40:23 2017  

Host: 
0

     Scratch files written to /scratch/nricke/qchem27791//
Processing $rem in /opt/qchem.20160721/config/preferences.
xc_grid     000075000302
max_scf_cycles  200
geom_opt_max_cycles 200
symmetry    false
sym_ignore  true
Applying user defined connections for MM calculations
Symmetry disabled for AIMD jobs.

Checking the input file for inconsistencies... 	...done.

--------------------------------------------------------------
User input:
--------------------------------------------------------------
$molecule
2 1
Ar  15.3382357057  -3.7662  16.5999855651  208   0 0 0 0
Ar  16.1249843554  -3.7266  14.4753173766  208   0 0 0 0
Ar  17.1942021162  -3.687  17.5713640966  208   0 0 0 0
Ar  13.6880858668  -3.6474  15.5946469158  208   0 0 0 0
Ar  18.2273438844  -3.6078  14.5794210776  208   0 0 0 0
Ar  15.2306898044  -3.5682  18.8303160302  208   0 0 0 0
Ar  14.5242735385  -3.5286  13.1779074507  208   0 0 0 0
Ar  19.2002625198  -3.489  17.174017525  208   0 0 0 0
Ar  12.6306434102  -3.4494  17.3891063512  208   0 0 0 0
Ar  17.6191421226  -3.4098  12.5227548536  208   0 0 0 0
Ar  17.1990392296  -3.3702  19.853419424  208   0 0 0 0
Ar  12.3379587146  -3.3306  13.8849879058  208   0 0 0 0
Ar  20.2880376586  -3.291  15.0573083249  208   0 0 0 0
Ar  13.3626923095  -3.2514  19.7404972281  208   0 0 0 0
Ar  15.382659464  -3.2118  11.3074780699  208   0 0 0 0
Ar  19.7315117004  -3.1722  19.1545072211  208   0 0 0 0
Ar  10.9507356161  -3.1326  16.2104307564  208   0 0 0 0
Ar  19.6716305028  -3.093  12.3392810507  208   0 0 0 0
Ar  15.7445165527  -3.0534  21.3324317977  208   0 0 0 0
Ar  12.482696042  -3.0138  11.797879343  208   0 0 0 0
Ar  21.552326712  -2.9742  16.7502686434  208   0 0 0 0
Ar  11.2762025031  -2.9346  19.282433295  208   0 0 0 0
Ar  17.2799690484  -2.895  10.2724033482  208   0 0 0 0
Ar  18.9734945255  -2.8554  21.2068506266  208   0 0 0 0
Ar  10.158634429  -2.8158  14.1413163068  208   0 0 0 0
Ar  21.6578554464  -2.7762  13.3837690496  208   0 0 0 0
Ar  13.5354876397  -2.7366  21.8693212532  208   0 0 0 0
Ar  13.7991855729  -2.697  9.90819753217  208   0 0 0 0
Ar  21.8237752369  -2.6574  19.0675431943  208   0 0 0 0
Ar  9.51186593265  -2.6178  17.7098789469  208   0 0 0 0
Ar  19.6738667026  -2.5782  10.2742960961  208   0 0 0 0
Ar  17.1625277764  -2.5386  22.818784866  208   0 0 0 0
Ar  10.4392245308  -2.499  11.702393025  208   0 0 0 0
Ar  23.0922231253  -2.4594  15.4136781797  208   0 0 0 0
Ar  11.0830357059  -2.4198  21.3073655904  208   0 0 0 0
Ar  16.0267459588  -2.3802  8.67450871127  208   0 0 0 0
Ar  20.9805632351  -2.3406  21.5022652266  208   0 0 0 0
Ar  8.49975572486  -2.301  15.3077131644  208   0 0 0 0
Ar  22.0600174293  -2.2614  11.3958321478  208   0 0 0 0
Ar  14.6104389499  -2.2218  23.5907844578  208   0 0 0 0
Ar  11.8333214337  -2.1822  9.39503288193  208   0 0 0 0
Ar  23.6080924925  -2.1426  18.0895292573  208   0 0 0 0
Ar  8.88384239567  -2.103  19.6492759406  208   0 0 0 0
Ar  18.7989093456  -2.0634  8.42814666455  208   0 0 0 0
Ar  19.0697967648  -2.0238  23.5649876135  208   0 0 0 0
Ar  8.53352307107  -1.9842  12.467762513  208   0 0 0 0
Ar  23.959268314  -1.9446  13.5452977151  208   0 0 0 0
Ar  11.7320675672  -1.905  23.2691131499  208   0 0 0 0
Ar  14.20495971  -1.8654  7.68472185612  208   0 0 0 0
Ar  22.9936607142  -1.8258  20.9763621582  208   0 0 0 0
Ar  7.38618535747  -1.7862  17.0744014769  208   0 0 0 0
Ar  21.6639120276  -1.7466  9.337230179  208   0 0 0 0
Ar  16.3128705393  -1.707  24.8282425956  208   0 0 0 0
Ar  9.73616159925  -1.6674  9.65494630396  208   0 0 0 0
Ar  24.9685378847  -1.6278  16.4610275476  208   0 0 0 0
Ar  9.00158599744  -1.5882  21.77700191  208   0 0 0 0
Ar  17.2543855449  -1.5486  6.94667348988  208   0 0 0 0
Ar  21.219116685  -1.509  23.5948431386  208   0 0 0 0
Ar  6.93408167513  -1.4694  13.9180242572  208   0 0 0 0
Ar  24.1414814057  -1.4298  11.3842630635  208   0 0 0 0
Ar  13.0776850307  -1.3902  24.9823350856  208   0 0 0 0
Ar  12.0429144677  -1.3506  7.34617609526  208   0 0 0 0
Ar  24.8153324923  -1.311  19.7457322373  208   0 0 0 0
Ar  6.88821747119  -1.2714  19.2260187768  208   0 0 0 0
Ar  20.5584384263  -1.2318  7.41358404699  208   0 0 0 0
Ar  18.4419854541  -1.1922  25.4877446657  208   0 0 0 0
Ar  7.71815012746  -1.1526  10.6254026163  208   0 0 0 0
Ar  25.7906280493  -1.113  14.3670195427  208   0 0 0 0
Ar  9.82760218503  -1.0734  23.8806603312  208   0 0 0 0
Ar  15.2085066222  -1.0338  5.96206876151  208   0 0 0 0
Ar  23.3986310791  -0.9942  22.922125328  208   0 0 0 0
Ar  5.78822075459  -0.9546  15.9024524765  208   0 0 0 0
Ar  23.630233994  -0.915  9.13970716275  208   0 0 0 0
Ar  14.9871645011  -0.8754  26.286963876  208   0 0 0 0
Ar  9.74509404272  -0.8358  7.68858320948  208   0 0 0 0
Ar  26.2749783978  -0.7962  17.924749145  208   0 0 0 0
Ar  7.055325698  -0.7566  21.5644365532  208   0 0 0 0
Ar  18.8394193451  -0.717  5.80395380309  208   0 0 0 0
Ar  20.8075262776  -0.6774  25.5013810671  208   0 0 0 0
Ar  5.96485685696  -0.6378  12.2292012464  208   0 0 0 0
Ar  25.9893489796  -0.5982  11.9885440276  208   0 0 0 0
Ar  11.303266771  -0.5586  25.7700134323  208   0 0 0 0
Ar  12.8318965202  -0.519  5.57511282289  208   0 0 0 0
Ar  25.4151787391  -0.4794  21.5870346046  208   0 0 0 0
Ar  5.211142123  -0.4398  18.2618959515  208   0 0 0 0
Ar  22.4475541696  -0.4002  7.00605943688  208   0 0 0 0
Ar  17.3137570443  -0.3606  27.0547276562  208   0 0 0 0
Ar  7.50562428009  -0.321  8.7077437739  208   0 0 0 0
Ar  27.232613707  -0.2814  15.6469505647  208   0 0 0 0
Ar  7.90070891612  -0.2418  23.8973249799  208   0 0 0 0
Ar  16.6264868663  -0.2022  4.65867535496  208   0 0 0 0
Ar  23.2203749236  -0.1626  24.8390668581  208   0 0 0 0
Ar  4.63560451138  -0.123  14.3612001045  208   0 0 0 0
Ar  25.5183194421  -0.0834  9.51016686231  208   0 0 0 0
Ar  13.3384057511  -0.0438  27.2781164818  208   0 0 0 0
Ar  10.3033030644  -0.0042  5.84781995786  208   0 0 0 0
Ar  27.095555481  0.0354  19.6644021637  208   0 0 0 0
Ar  5.27976032231  0.075  20.8246158428  208   0 0 0 0
Ar  20.652656557  0.1146  5.16142631663  208   0 0 0 0
Ar  19.8938481408  0.1542  27.1946100776  208   0 0 0 0
Ar  5.50616547196  0.1938  10.3602345955  208   0 0 0 0
Ar  27.5839804288  0.2334  13.0667881817  208   0 0 0 0
Ar  9.39681317678  0.273  26.040805663  208   0 0 0 0
Ar  14.0639696768  0.3126  4.09433053141  208   0 0 0 0
Ar  25.4957539265  0.3522  23.5125042145  208   0 0 0 0
Ar  3.85832754891  0.3918  16.8880735604  208   0 0 0 0
Ar  24.373500822  0.4314  7.11626664764  208   0 0 0 0
Ar  15.8114946172  0.471  28.2667025572  208   0 0 0 0
Ar  7.80543373035  0.5106  6.7997669403  208   0 0 0 0
Ar  28.2922263672  0.5502  17.2632372585  208   0 0 0 0
Ar  6.02889802454  0.5898  23.4108176243  208   0 0 0 0
Ar  18.341406872  0.6294  3.76150693902  208   0 0 0 0
Ar  22.5517627099  0.669  26.656922227  208   0 0 0 0
Ar  3.9094429345  0.7086  12.5638740987  208   0 0 0 0
Ar  27.264987968  0.7482  10.3546514489  208   0 0 0 0
Ar  11.4755922896  0.7878  27.8262939226  208   0 0 0 0
Ar  11.3158507611  0.8274  4.18886493627  208   0 0 0 0
Ar  27.4604092073  0.867  21.5752435293  208   0 0 0 0
Ar  3.72420091227  0.9066  19.6533155686  208   0 0 0 0
Ar  22.5936793534  0.9462  4.9835596151  208   0 0 0 0
Ar  18.5745193809  0.9858  28.6320685813  208   0 0 0 0
Ar  5.51724844363  1.0254  8.40710708598  208   0 0 0 0
Ar  28.8897330984  1.065  14.5221069445  208   0 0 0 0
Ar  7.44972993996  1.1046  25.8405210983  208   0 0 0 0
Ar  15.6420353556  1.1442  2.93267440007  208   0 0 0 0
Ar  25.1077222675  1.1838  25.4354799017  208   0 0 0 0
Ar  2.85184119302  1.2234  15.2015891774  208   0 0 0 0
Ar  26.2545480688  1.263  7.68890310174  208   0 0 0 0
Ar  14.0318767007  1.3026  29.1083551737  208   0 0 0 0
Ar  8.55787762167  1.3422  4.97807254792  208   0 0 0 0
Ar  28.9608701911  1.3818  19.1198823562  208   0 0 0 0
Ar  4.28343418393  1.4214  22.4849721504  208   0 0 0 0
Ar  20.2582938684  1.461  3.27249120977  208   0 0 0 0
Ar  21.4604700374  1.5006  28.3099696925  208   0 0 0 0
Ar  3.6050653311  1.5402  10.6040618809  208   0 0 0 0
Ar  28.8102639955  1.5798  11.6019612532  208   0 0 0 0
Ar  9.49055133362  1.6194  27.9426724256  208   0 0 0 0
Ar  12.7083570431  1.659  2.76575316725  208   0 0 0 0
Ar  27.3871024451  1.6986  23.567591312  208   0 0 0 0
Ar  2.43656097718  1.7382  18.1277274371  208   0 0 0 0
Ar  24.5753425069  1.7778  5.24655146055  208   0 0 0 0
Ar  16.9291506965  1.8174  29.7721278756  208   0 0 0 0
Ar  5.96824158962  1.857  6.45403347057  208   0 0 0 0
Ar  29.8714048353  1.8966  16.272885304  208   0 0 0 0
Ar  5.54290921746  1.9362  25.2048770588  208   0 0 0 0
Ar  17.4829088073  1.9758  2.11880336267  208   0 0 0 0
Ar  24.2924133272  2.0154  27.2787785653  208   0 0 0 0
Ar  2.21371031701  2.055  13.2867453175  208   0 0 0 0
Ar  28.0175986966  2.0946  8.67730018144  208   0 0 0 0
Ar  12.0598570112  2.1342  29.5643473913  208   0 0 0 0
Ar  9.71125350743  2.1738  3.31130861028  208   0 0 0 0
Ar  29.2299203448  2.2134  21.1317590338  208   0 0 0 0
Ar  2.72817019249  2.253  21.1761882935  208   0 0 0 0
Ar  22.2923342651  2.2926  3.1935508933  208   0 0 0 0
Ar  20.0072272155  2.3322  29.7394767593  208   0 0 0 0
Ar  3.7177403542  2.3718  8.56577267515  208   0 0 0 0
Ar  30.1008360418  2.4114  13.187430741  208   0 0 0 0
Ar  7.46599541073  2.451  27.6385513686  208   0 0 0 0
Ar  14.4126432225  2.4906  1.62610203421  208   0 0 0 0
Ar  26.8933778185  2.5302  25.5605195225  208   0 0 0 0
Ar  1.4585213398  2.5698  16.319096753  208   0 0 0 0
Ar  26.5189901756  2.6094  5.9263798353  208   0 0 0 0
Ar  15.031585575  2.649  30.579252792  208   0 0 0 0
Ar  6.82904633885  2.6886  4.57692582296  208   0 0 0 0
Ar  30.4997793959  2.7282  18.24316907  208   0 0 0 0
Ar  3.7490594203  2.7678  24.1698073192  208   0 0 0 0
Ar  19.509028565  2.8074  1.67547943651  208   0 0 0 0
Ar  23.0913170907  2.847  28.9733379499  208   0 0 0 0
Ar  1.96014720218  2.8866  11.2221946686  208   0 0 0 0
Ar  29.5976581162  2.9262  10.0347270828  208   0 0 0 0
Ar  9.97465427029  2.9658  29.6250709027  208   0 0 0 0
Ar  11.2139399506  3.0054  1.86000497369  208   0 0 0 0
Ar  29.0963843341  3.045  23.2196132104  208   0 0 0 0
Ar  1.41880179939  3.0846  19.5405950944  208   0 0 0 0
Ar  24.3647710291  3.1242  3.52109399477  208   0 0 0 0
Ar  18.2522572896  3.1638  30.8949203124  208   0 0 0 0
Ar  4.23736640194  3.2034  6.52673615763  208   0 0 0 0
Ar  31.0916584714  3.243  15.0471844528  208   0 0 0 0
Ar  5.47810249756  3.2826  26.9304234976  208   0 0 0 0
Ar  16.361648152  3.3222  0.809211160967  208   0 0 0 0
Ar  26.0019575248  3.3618  27.4799163874  208   0 0 0 0
Ar  0.823405746013  3.4014  14.2971815972  208   0 0 0 0
Ar  28.3530776156  3.441  6.99429729471  208   0 0 0 0
Ar  12.9537715812  3.4806  31.0262846077  208   0 0 0 0
Ar  8.06513562992  3.5202  2.84427848193  208   0 0 0 0
Ar  30.7540097632  3.5598  20.3593438115  208   0 0 0 0
Ar  2.13316222694  3.5994  22.7753329385  208   0 0 0 0
Ar  21.6456474266  3.639  1.61713512468  208   0 0 0 0
Ar  21.5496247894  3.6786  30.4581266351  208   0 0 0 0
Ar  2.09911197106  3.7182  9.08327545343  208   0 0 0 0
Ar  30.9380547346  3.7578  11.7111823248  208   0 0 0 0
Ar  7.85165223591  3.7974  29.2890501773  208   0 0 0 0
Ar  13.0115188186  3.837  0.676095038481  208   0 0 0 0
Ar  28.5652374244  3.8766  25.3085608275  208   0 0 0 0
Ar  0.402180002081  3.9162  17.6366027751  208   0 0 0 0
Ar  26.4017607692  3.9558  4.2437742424  208   0 0 0 0
Ar  16.257510027  3.9954  31.7348391095  208   0 0 0 0
Ar  5.14635159799  4.035  4.55922236357  208   0 0 0 0
Ar  31.7469278646  4.0746  17.1162103775  208   0 0 0 0
Ar  3.59704883872  4.1142  25.8419560249  208   0 0 0 0
Ar  18.4877961915  4.1538  0.344999497403  208   0 0 0 0
Ar  24.7423700821  4.1934  29.2582037298  208   0 0 0 0
Ar  0.555065265954  4.233  12.1316049444  208   0 0 0 0
Ar  30.0131090373  4.2726  8.41517034684  208   0 0 0 0
Ar  10.7668488446  4.3122  31.0955788157  208   0 0 0 0
Ar  9.63606783321  4.3518  1.31704415003  208   0 0 0 0
Ar  30.6227508057  4.3914  22.5492923869  208   0 0 0 0
Ar  0.752193669841  4.431  21.0668684713  208   0 0 0 0
Ar  23.8202173227  4.4706  1.94877003125  208   0 0 0 0
Ar  19.7173527506  4.5102  31.6805484257  208   0 0 0 0
Ar  2.62925963704  4.5498  6.94241872751  208   0 0 0 0
Ar  31.9909418695  4.5894  13.6524521685  208   0 0 0 0
Ar  5.76261926753  4.629  28.563926707  208   0 0 0 0
Ar  15.0460135322  4.6686  -0.19765738575  208   0 0 0 0
Ar  27.6503226863  4.7082  27.3280355314  208   0 0 0 0
Ar  -0.28430875401  4.7478  15.5254892219  208   0 0 0 0
Ar  28.3344679963  4.7874  5.34168807852  208   0 0 0 0
Ar  14.0870795928  4.827  32.2274774378  208   0 0 0 0
Ar  6.41891811779  4.8666  2.72982151717  208   0 0 0 0
Ar  32.0407295444  4.9062  19.3281029318  208   0 0 0 0
Ar  1.88668335973  4.9458  24.4045710869  208   0 0 0 0
Ar  20.7228912073  4.9854  0.253375055505  208   0 0 0 0
Ar  23.1514099871  5.025  30.8347478175  208   0 0 0 0
Ar  0.667281557664  5.0646  9.89182056401  208   0 0 0 0
Ar  31.442114049  5.1042  10.147144015  208   0 0 0 0
Ar  8.54098787086  5.1438  30.7795529515  208   0 0 0 0
Ar  11.4952769142  5.1834  0.0481108949773  208   0 0 0 0
Ar  30.1046446973  5.223  24.7426723058  208   0 0 0 0
Ar  -0.345427134789  5.2626  19.0953067274  208   0 0 0 0
Ar  25.9627682139  5.3022  2.66553947078  208   0 0 0 0
Ar  17.6493043747  5.3418  32.5970044821  208   0 0 0 0
Ar  3.53961250647  5.3814  4.86868213308  208   0 0 0 0
Ar  32.7178543067  5.421  15.8002674982  208   0 0 0 0
Ar  3.7751692957  5.4606  27.4666948779  208   0 0 0 0
Ar  17.256159386  5.5002  -0.728193701446  208   0 0 0 0
Ar  26.3744890019  5.5398  29.2123857062  208   0 0 0 0
Ar  -0.613243054799  5.5794  13.2710229922  208   0 0 0 0
Ar  30.0997053171  5.619  6.78633891279  208   0 0 0 0
Ar  11.8067288598  5.6586  32.3512374704  208   0 0 0 0
Ar  8.02117140167  5.6982  1.09877543371  208   0 0 0 0
Ar  31.9574301188  5.7378  21.6156283115  208   0 0 0 0
Ar  0.403845191522  5.7774  22.6572704991  208   0 0 0 0
Ar  22.9987616298  5.817  0.543912539378  208   0 0 0 0
Ar  21.2728569204  5.8566  32.1565415507  208   0 0 0 0
Ar  1.16352365306  5.8962  7.64639898387  208   0 0 0 0
Ar  32.5913158754  5.9358  12.1420262183  208   0 0 0 0
Ar  6.34461788467  5.9754  30.0808430677  208   0 0 0 0
Ar  13.590557048  6.015  -0.918339022442  208   0 0 0 0
Ar  29.2083844835  6.0546  26.871733164  208   0 0 0 0
Ar  -1.12043974235  6.0942  16.916438573  208   0 0 0 0
Ar  28.0067591114  6.1338  3.75278855855  208   0 0 0 0
Ar  15.4044002018  6.1734  33.1734440953  208   0 0 0 0
Ar  4.80969526127  6.213  2.92687769313  208   0 0 0 0
Ar  33.0901974247  6.2526  18.0930565446  208   0 0 0 0
Ar  1.95188090635  6.2922  26.0234639566  208   0 0 0 0
Ar  19.578231134  6.3318  -0.892578300494  208   0 0 0 0
Ar  24.769249549  6.3714  30.901751679  208   0 0 0 0
Ar  -0.567504288893  6.411  10.9385696692  208   0 0 0 0
Ar  31.6407946872  6.4506  8.54108137772  208   0 0 0 0
Ar  9.48293925929  6.4902  32.0949294709  208   0 0 0 0
Ar  9.91164510217  6.5298  -0.280855842456  208   0 0 0 0
Ar  31.4918336992  6.5694  23.9117209476  208   0 0 0 0
Ar  -0.802430273319  6.609  20.6459933953  208   0 0 0 0
Ar  25.2482925047  6.6486  1.21579635191  208   0 0 0 0
Ar  19.1567404193  6.6882  33.1789479814  208   0 0 0 0
Ar  2.0369942229  6.7278  5.46197095201  208   0 0 0 0
Ar  33.4208140694  6.7674  14.3461105267  208   0 0 0 0
Ar  4.24335718753  6.807  29.0121513961  208   0 0 0 0
Ar  15.8649662446  6.8466  -1.5474413795  208   0 0 0 0
Ar  27.9524540813  6.8862  28.8723878505  208   0 0 0 0
Ar  -1.54327525661  6.9258  14.589975926  208   0 0 0 0
Ar  29.8901392758  6.9654  5.1864202452  208   0 0 0 0
Ar  13.0446358549  7.005  33.3858102073  208   0 0 0 0
Ar  6.41001019862  7.0446  1.17653211309  208   0 0 0 0
Ar  33.0895982957  7.0842  20.4670429206  208   0 0 0 0
Ar  0.349290442721  7.1238  24.2688776503  208   0 0 0 0
Ar  21.9471872864  7.1634  -0.678249178273  208   0 0 0 0
Ar  22.8740993067  7.203  32.3430288212  208   0 0 0 0
Ar  -0.140421750303  7.2426  8.59391155872  208   0 0 0 0
Ar  32.9084761282  7.2822  10.5619016359  208   0 0 0 0
Ar  7.18170516217  7.3218  31.4578074399  208   0 0 0 0
Ar  12.042173921  7.3614  -1.3640382885  208   0 0 0 0
Ar  30.649105256  7.401  26.1507034297  208   0 0 0 0
Ar  -1.69168168356  7.4406  18.4226571252  208   0 0 0 0
Ar  27.406648493  7.4802  2.25801123969  208   0 0 0 0
Ar  16.8583016863  7.5198  33.8663878749  208   0 0 0 0
Ar  3.27093479991  7.5594  3.40201269265  208   0 0 0 0
Ar  33.9001813016  7.599  16.7012854268  208   0 0 0 0
Ar  2.29881799748  7.6386  27.5958271011  208   0 0 0 0
Ar  18.2579979201  7.6782  -1.81414882039  208   0 0 0 0
Ar  26.364596681  7.7178  30.6853769093  208   0 0 0 0
Ar  -1.59445090749  7.7574  12.1783273126  208   0 0 0 0
Ar  31.5564707828  7.797  6.93353649682  208   0 0 0 0
Ar  10.6338147377  7.8366  33.2203244047  208   0 0 0 0
Ar  8.3027841562  7.8762  -0.329183309828  208   0 0 0 0
Ar  32.708076763  7.9158  22.8575452926  208   0 0 0 0
Ar  -0.983115351186  7.9554  22.2452662994  208   0 0 0 0
Ar  24.29799128  7.995  -0.0830718019475  208   0 0 0 0
Ar  20.7355722068  8.0346  33.4908024237  208   0 0 0 0
Ar  0.664292928451  8.0742  6.30191617031  208   0 0 0 0
Ar  33.8617609741  8.1138  12.7984485074  208   0 0 0 0
Ar  4.96720333509  8.1534  30.4493829717  208   0 0 0 0
Ar  14.3590053943  8.193  -2.114527057  208   0 0 0 0
Ar  29.4444638484  8.2326  28.2696046774  208   0 0 0 0
Ar  -2.23268708601  8.2722  16.0439732199  208   0 0 0 0
Ar  29.4125683056  8.3118  3.64976864782  208   0 0 0 0
Ar  14.4367464228  8.3514  34.1929003916  208   0 0 0 0
Ar  4.83916959415  8.391  1.52558643865  208   0 0 0 0
Ar  34.008913382  8.4306  19.146334874  208   0 0 0 0
Ar  0.567392943622  8.4702  25.8632081882  208   0 0 0 0
Ar  20.7069245496  8.5098  -1.70356517037  208   0 0 0 0
Ar  24.4810465976  8.5494  32.2574254208  208   0 0 0 0
Ar  -1.26478460042  8.589  9.74522184956  208   0 0 0 0
Ar  32.9560185463  8.6286  8.95331128756  208   0 0 0 0
Ar  8.23615073773  8.6682  32.6735786679  208   0 0 0 0
Ar  10.4429401865  8.7078  -1.54446613611  208   0 0 0 0
Ar  31.9480124071  8.7474  25.2003846126  208   0 0 0 0
Ar  -2.00382709532  8.787  20.0015835795  208   0 0 0 0
Ar  26.5670171463  8.8266  0.884819622641  208   0 0 0 0
Ar  18.4060941057  8.8662  34.30818135  208   0 0 0 0
Ar  1.83283004699  8.9058  4.12514366755  208   0 0 0 0
Ar  34.4686637447  8.9454  15.1952555691  208   0 0 0 0
Ar  2.90042501999  8.985  29.0890166842  208   0 0 0 0
Ar  16.8040877118  9.0246  -2.50548972748  208   0 0 0 0
Ar  27.902652062  9.0642  30.2094918657  208   0 0 0 0
Ar  -2.40397259879  9.1038  13.570103816  208   0 0 0 0
Ar  31.2096495096  9.1434  5.3611559196  208   0 0 0 0
Ar  11.9538559881  9.183  34.1425321649  208   0 0 0 0
Ar  6.70686895365  9.2226  -0.113886471252  208   0 0 0 0
Ar  33.7366947057  9.2622  21.618361471  208   0 0 0 0
Ar  -0.900903579097  9.3018  23.8537491449  208   0 0 0 0
Ar  23.1482439097  9.3414  -1.21108423429  208   0 0 0 0
Ar  22.3455543153  9.381  33.5423235561  208   0 0 0 0
Ar  -0.55540509712  9.4206  7.35425146052  208   0 0 0 0
Ar  34.0467435528  9.4602  11.1980609584  208   0 0 0 0
Ar  5.91481057737  9.4998  31.7524160288  208   0 0 0 0
Ar  12.7792552968  9.5394  -2.43178015496  208   0 0 0 0
Ar  30.8218958469  9.579  27.4333299042  208   0 0 0 0
Ar  -2.68010649327  9.6186  17.5921701661  208   0 0 0 0
Ar  28.6934717506  9.6582  2.20739896242  208   0 0 0 0
Ar  15.9426773281  9.6978  34.7674811417  208   0 0 0 0
Ar  3.34178445358  9.7374  2.12245971582  208   0 0 0 0
Ar  34.7067685577  9.777  17.6931056427  208   0 0 0 0
Ar  1.03783516844  9.8166  27.4052931542  208   0 0 0 0
Ar  19.3164826195  9.8562  -2.51995088287  208   0 0 0 0
Ar  26.0571928739  9.8958  31.9167538399  208   0 0 0 0
Ar  -2.19413099124  9.9354  11.0632113964  208   0 0 0 0
Ar  32.7475640568  9.975  7.35399213631  208   0 0 0 0
Ar  9.47251119077  10.0146  33.709526741  208   0 0 0 0
Ar  8.83151159834  10.0542  -1.46976321344  208   0 0 0 0
Ar  33.0834564557  10.0938  24.0542769618  208   0 0 0 0
Ar  -2.06348570364  10.1334  21.6139595167  208   0 0 0 0
Ar  25.5191720353  10.173  -0.342315729501  208   0 0 0 0
Ar  20.0082339137  10.2126  34.5018808029  208   0 0 0 0
Ar  0.522454278598  10.2522  5.06738733997  208   0 0 0 0
Ar  34.7951530322  10.2918  13.6144791309  208   0 0 0 0
Ar  3.7304515463  10.3314  30.4735931692  208   0 0 0 0
Ar  15.2556681929  10.371  -2.96259433084  208   0 0 0 0
Ar  29.3518624215  10.4106  29.4975275478  208   0 0 0 0
Ar  -2.98860776826  10.4502  15.0753832923  208   0 0 0 0
Ar  30.6207796125  10.4898  3.85734015088  208   0 0 0 0
Ar  13.4054982002  10.5294  34.8507225902  208   0 0 0 0
Ar  5.15886894195  10.569  0.347706284174  208   0 0 0 0
Ar  34.563600463  10.6086  20.2304941624  208   0 0 0 0
Ar  -0.56989039482  10.6482  25.4351913842  208   0 0 0 0
Ar  21.8338581992  10.6878  -2.1510328492  208   0 0 0 0
Ar  23.9494502041  10.7274  33.3442873575  208   0 0 0 0
Ar  -1.60192951782  10.767  8.58594835637  208   0 0 0 0
Ar  33.9831582873  10.8066  9.5828703545  208   0 0 0 0
Ar  7.05517613284  10.8462  32.8982982625  208   0 0 0 0
Ar  11.1640216732  10.8858  -2.50318427341  208   0 0 0 0
Ar  32.0592159702  10.9254  26.3923121019  208   0 0 0 0
Ar  -2.88609744761  10.965  19.1961807954  208   0 0 0 0
Ar  27.7591348157  11.0046  0.887208747723  208   0 0 0 0
Ar  17.5242633696  11.0442  35.10671647  208   0 0 0 0
Ar  1.947881084  11.0838  2.94351850056  208   0 0 0 0
Ar  35.1769735697  11.1234  16.1450028816  208   0 0 0 0
Ar  1.73980184617  11.163  28.8632266204  208   0 0 0 0
Ar  17.8127012632  11.2026  -3.1179329117  208   0 0 0 0
Ar  27.5690141216  11.2422  31.338867795  208   0 0 0 0
Ar  -2.91580013123  11.2818  12.5121300945  208   0 0 0 0
Ar  32.297885337  11.3214  5.79881442663  208   0 0 0 0
Ar  10.8563972429  11.361  34.5499229437  208   0 0 0 0
Ar  7.2438245979  11.4006  -1.15152625336  208   0 0 0 0
Ar  34.0367828117  11.4402  22.7451503226  208   0 0 0 0
Ar  -1.87900846505  11.4798  23.2230683295  208   0 0 0 0
Ar  24.2940193565  11.5194  -1.40197771791  208   0 0 0 0
Ar  21.6275141611  11.559  34.4525469597  208   0 0 0 0
Ar  -0.636196166552  11.5986  6.19992927596  208   0 0 0 0
Ar  34.8814006985  11.6382  11.9963619972  208   0 0 0 0
Ar  4.76238534069  11.6778  31.7231826016  208   0 0 0 0
Ar  13.6500533976  11.7174  -3.18391143117  208   0 0 0 0
Ar  30.6836945011  11.757  28.5735026666  208   0 0 0 0
Ar  -3.34353409986  11.7966  16.6572315479  208   0 0 0 0
Ar  29.8112153378  11.8362  2.45254852852  208   0 0 0 0
Ar  14.9524700772  11.8758  35.3368585813  208   0 0 0 0
Ar  3.69092327086  11.9154  1.03705461095  208   0 0 0 0
Ar  35.1776225824  11.955  18.7292757251  208   0 0 0 0
Ar  -0.00567525850632  11.9946  26.9560314183  208   0 0 0 0
Ar  20.388960554  12.0342  -2.88871557474  208   0 0 0 0
Ar  25.5125422701  12.0738  32.9092486454  208   0 0 0 0
Ar  -2.45817372467  12.1134  9.96434246442  208   0 0 0 0
Ar  33.6804354219  12.153  7.98847683887  208   0 0 0 0
Ar  8.35734089253  12.1926  33.867165845  208   0 0 0 0
Ar  9.54950882012  12.2322  -2.33498939683  208   0 0 0 0
Ar  33.1339704669  12.2718  25.1755763327  208   0 0 0 0
Ar  -2.85369846909  12.3114  20.8194778514  208   0 0 0 0
Ar  26.6364358661  12.351  -0.285944198707  208   0 0 0 0
Ar  19.1449362114  12.3906  35.2104267657  208   0 0 0 0
Ar  0.68451839013  12.4302  3.96422619058  208   0 0 0 0
Ar  35.4161484235  12.4698  14.5383555467  208   0 0 0 0
Ar  2.65127428785  12.5094  30.2079669423  208   0 0 0 0
Ar  16.2313930997  12.549  -3.49097273783  208   0 0 0 0
Ar  28.9857180183  12.5886  30.5431120092  208   0 0 0 0
Ar  -3.42016047092  12.6282  14.0569530771  208   0 0 0 0
Ar  31.6235182174  12.6678  4.32007722408  208   0 0 0 0
Ar  12.3538356688  12.7074  35.1821311796  208   0 0 0 0
Ar  5.7134310804  12.747  -0.603369255239  208   0 0 0 0
Ar  34.7924614951  12.7866  21.3056718306  208   0 0 0 0
Ar  -1.46099729654  12.8262  24.7943672308  208   0 0 0 0
Ar  22.9226769802  12.8658  -2.27587435676  208   0 0 0 0
Ar  23.2286691325  12.9054  34.167702617  208   0 0 0 0
Ar  -1.62221927421  12.945  7.49343103698  208   0 0 0 0
Ar  34.7318069486  12.9846  10.3766208522  208   0 0 0 0
Ar  5.96888292395  13.0242  32.8144437627  208   0 0 0 0
Ar  12.0231370669  13.0638  -3.1706989155  208   0 0 0 0
Ar  31.8725561654  13.1034  27.4625663649  208   0 0 0 0
Ar  -3.46687118551  13.143  18.2798516036  208   0 0 0 0
Ar  28.8037296493  13.1826  1.17441985445  208   0 0 0 0
Ar  16.5593430964  13.2222  35.5959490375  208   0 0 0 0
Ar  2.33249880369  13.2618  1.93392478587  208   0 0 0 0
Ar  35.570710112  13.3014  17.1494986582  208   0 0 0 0
Ar  0.774190525974  13.341  28.3852055798  208   0 0 0 0
Ar  18.8474459679  13.3806  -3.41309518061  208   0 0 0 0
Ar  27.0024121665  13.4202  32.2519539587  208   0 0 0 0
Ar  -3.11020984195  13.4598  11.4566897868  208   0 0 0 0
Ar  33.1504160092  13.4994  6.44840229731  208   0 0 0 0
Ar  9.78995552166  13.539  34.6423171212  208   0 0 0 0
Ar  7.97008391434  13.5786  -1.93605262527  208   0 0 0 0
Ar  34.0268210236  13.6182  23.8128451761  208   0 0 0 0
Ar  -2.58872695787  13.6578  22.4271122738  208   0 0 0 0
Ar  25.3532518664  13.6974  -1.29024116271  208   0 0 0 0
Ar  20.7694315023  13.737  35.0813569959  208   0 0 0 0
Ar  -0.424178654076  13.7766  5.15875551347  208   0 0 0 0
Ar  35.4239560608  13.8162  12.908475489  208   0 0 0 0
Ar  3.74866277228  13.8558  31.4132735347  208   0 0 0 0
Ar  14.6076504746  13.8954  -3.63566478303  208   0 0 0 0
Ar  30.2791540355  13.935  29.5506683205  208   0 0 0 0
Ar  -3.70077430513  13.9746  15.6630717544  208   0 0 0 0
Ar  30.7430850214  14.0142  2.94762190364  208   0 0 0 0
Ar  13.9309611923  14.0538  35.5967405206  208   0 0 0 0
Ar  4.27163242092  14.0934  0.158776868754  208   0 0 0 0
Ar  35.3381892322  14.133  19.7687104764  208   0 0 0 0
Ar  -0.822580419343  14.1726  26.2953356849  208   0 0 0 0
Ar  21.4367730626  14.2122  -2.9489121815  208   0 0 0 0
Ar  24.7782081434  14.2518  33.657583372  208   0 0 0 0
Ar  -2.41785397552  14.2914  8.91773966121  208   0 0 0 0
Ar  34.3536467397  14.331  8.7894612159  208   0 0 0 0
Ar  7.32148901544  14.3706  33.7270900062  208   0 0 0 0
Ar  10.4095798498  14.4102  -2.92722541117  208   0 0 0 0
Ar  32.8957955303  14.4498  26.191267218  208   0 0 0 0
Ar  -3.35985820271  14.4894  19.9083898498  208   0 0 0 0
Ar  27.6227703401  14.529  0.0477938537991  208   0 0 0 0
Ar  18.1913333771  14.5686  35.6262032162  208   0 0 0 0
Ar  1.11043002668  14.6082  3.01614755863  208   0 0 0 0
Ar  35.7380644829  14.6478  15.525615838  208   0 0 0 0
Ar  1.7499764492  14.6874  29.6940919025  208   0 0 0 0
Ar  17.2431783699  14.727  -3.71640968055  208   0 0 0 0
Ar  28.3888703511  14.7666  31.3895535417  208   0 0 0 0
Ar  -3.54737878025  14.8062  13.0299680689  208   0 0 0 0
Ar  32.4075481507  14.8458  4.99417298569  208   0 0 0 0
Ar  11.3210851098  14.8854  35.2102835505  208   0 0 0 0
Ar  6.4583698413  14.925  -1.31801851204  208   0 0 0 0
Ar  34.7215979194  14.9646  22.334729366  208   0 0 0 0
Ar  -2.09994365941  15.0042  23.9856120567  208   0 0 0 0
Ar  23.9386430891  15.0438  -2.10693926457  208   0 0 0 0
Ar  22.3636812059  15.0834  34.7253255029  208   0 0 0 0
Ar  -1.35704077664  15.123  6.4998107674  208   0 0 0 0
Ar  35.2032358485  15.1626  11.2897699819  208   0 0 0 0
Ar  5.0066365695  15.2022  32.4557151059  208   0 0 0 0
Ar  12.9759613004  15.2418  -3.55185508793  208   0 0 0 0
Ar  31.4238095767  15.2814  28.3847172223  208   0 0 0 0
Ar  -3.75450225463  15.321  17.2961760748  208   0 0 0 0
Ar  29.6774471917  15.3606  1.70884668424  208   0 0 0 0
Ar  15.5538981262  15.4002  35.7876562063  208   0 0 0 0
Ar  2.94750329331  15.4398  1.11652090047  208   0 0 0 0
Ar  35.6649677668  15.4794  18.167454952  208   0 0 0 0
Ar  0.0204536482625  15.519  27.6954436428  208   0 0 0 0
Ar  19.8685623845  15.5586  -3.40926273055  208   0 0 0 0
Ar  26.2443771063  15.5982  32.9352621865  208   0 0 0 0
Ar  -3.00853570163  15.6378  10.4417736843  208   0 0 0 0
Ar  33.7571850136  15.6774  7.26762134418  208   0 0 0 0
Ar  8.79052562649  15.717  34.4439348171  208   0 0 0 0
Ar  8.84285754948  15.7566  -2.46087639419  208   0 0 0 0
Ar  33.7337374698  15.7962  24.7876604895  208   0 0 0 0
Ar  -3.02695120513  15.8358  21.5088844839  208   0 0 0 0
Ar  26.2945631894  15.8754  -0.905317221927  208   0 0 0 0
Ar  19.8142477367  15.915  35.4291195946  208   0 0 0 0
Ar  0.0488978356969  15.9546  4.25951941782  208   0 0 0 0
Ar  35.6782204  15.9942  13.8917960098  208   0 0 0 0
Ar  2.89967869544  16.0338  30.85652505  208   0 0 0 0
Ar  15.6100469296  16.0734  -3.79424576525  208   0 0 0 0
Ar  29.6439655894  16.113  30.3416907085  208   0 0 0 0
Ar  -3.7623567649  16.1526  14.6508203086  208   0 0 0 0
Ar  31.4689716177  16.1922  3.65531464073  208   0 0 0 0
Ar  12.9181530236  16.2318  35.5608899128  208   0 0 0 0
Ar  5.04524416432  16.2714  -0.495399020015  208   0 0 0 0
Ar  35.2053545034  16.311  20.7727831661  208   0 0 0 0
Ar  -1.39912811184  16.3506  25.4629801127  208   0 0 0 0
Ar  22.422907387  16.3902  -2.72042080836  208   0 0 0 0
Ar  23.8948089218  16.4298  34.1512951623  208   0 0 0 0
Ar  -2.09589921975  16.4694  7.95857489284  208   0 0 0 0
Ar  34.7600707209  16.509  9.71574839248  208   0 0 0 0
Ar  6.39807251127  16.5486  33.3147105052  208   0 0 0 0
Ar  11.3702172406  16.5882  -3.24270475353  208   0 0 0 0
Ar  32.3968474079  16.6278  27.0704877191  208   0 0 0 0
Ar  -3.58156335401  16.6674  18.9222452283  208   0 0 0 0
Ar  28.4497535674  16.707  0.628672105689  208   0 0 0 0
Ar  17.1887502897  16.7466  35.7521567458  208   0 0 0 0
Ar  1.76785958485  16.7862  2.2489645572  208   0 0 0 0
Ar  35.7671583558  16.8258  16.5354242662  208   0 0 0 0
Ar  1.04961073471  16.8654  28.9661816118  208   0 0 0 0
Ar  18.2509373185  16.905  -3.64841481284  208   0 0 0 0
Ar  27.5971869555  16.9446  32.016693503  208   0 0 0 0
Ar  -3.3829467954  16.9842  12.0335119341  208   0 0 0 0
Ar  32.9557197731  17.0238  5.84234513481  208   0 0 0 0
Ar  10.3450806674  17.0634  34.9509407232  208   0 0 0 0
Ar  7.35523510078  17.103  -1.78219645656  208   0 0 0 0
Ar  34.3697313612  17.1426  23.2813197204  208   0 0 0 0
Ar  -2.47586483017  17.1822  23.0482906628  208   0 0 0 0
Ar  24.8471238084  17.2218  -1.66577547544  208   0 0 0 0
Ar  21.394508115  17.2614  35.0095272798  208   0 0 0 0
Ar  -0.830616748147  17.301  5.63779038332  208   0 0 0 0
Ar  35.3930872193  17.3406  12.2819000048  208   0 0 0 0
Ar  4.19900742783  17.3802  31.8488422324  208   0 0 0 0
Ar  13.9819428838  17.4198  -3.64558040736  208   0 0 0 0
Ar  30.7420306886  17.4594  29.1305152422  208   0 0 0 0
Ar  -3.75119741857  17.499  16.2855773018  208   0 0 0 0
Ar  30.3545321355  17.5386  2.4593067881  208   0 0 0 0
Ar  14.5479627566  17.5782  35.687297099  208   0 0 0 0
Ar  3.7597933823  17.6178  0.514411090326  208   0 0 0 0
Ar  35.4684109032  17.6574  19.1594833248  208   0 0 0 0
Ar  -0.501095366085  17.697  26.8287401112  208   0 0 0 0
Ar  20.8375601004  17.7366  -3.11823808517  208   0 0 0 0
Ar  25.3311758177  17.7762  33.3713916662  208   0 0 0 0
Ar  -2.62563178309  17.8158  9.50472843319  208   0 0 0 0
Ar  34.103807253  17.8554  8.21897620091  208   0 0 0 0
Ar  7.89407261317  17.895  33.9725761146  208   0 0 0 0
Ar  9.82366777462  17.9346  -2.71471202059  208   0 0 0 0
Ar  33.1781544653  17.9742  25.635241269  208   0 0 0 0
Ar  -3.18555933721  18.0138  20.5075934067  208   0 0 0 0
Ar  27.0854261322  18.0534  -0.270509223756  208   0 0 0 0
Ar  18.8016464244  18.093  35.4909205878  208   0 0 0 0
Ar  0.757206714154  18.1326  3.53271468912  208   0 0 0 0
Ar  35.642510973  18.1722  14.9064228746  208   0 0 0 0
Ar  2.2437009095  18.2118  30.0811137106  208   0 0 0 0
Ar  16.617383735  18.2514  -3.66120636764  208   0 0 0 0
Ar  28.8084679763  18.291  30.9207058982  208   0 0 0 0
Ar  -3.5330511128  18.3306  13.6600365962  208   0 0 0 0
Ar  31.9655775169  18.3702  4.54332665977  208   0 0 0 0
Ar  11.9530497129  18.4098  35.2372566876  208   0 0 0 0
Ar  5.97771013993  18.4494  -0.904887738971  208   0 0 0 0
Ar  34.7901912777  18.489  21.7032965459  208   0 0 0 0
Ar  -1.7175739262  18.5286  24.4945376855  208   0 0 0 0
Ar  23.3102193277  18.5682  -2.21736032888  208   0 0 0 0
Ar  22.8992092713  18.6078  34.3755909997  208   0 0 0 0
Ar  -1.50937824633  18.6474  7.12270015849  208   0 0 0 0
Ar  34.8879574437  18.687  10.7294227962  208   0 0 0 0
Ar  5.62142049595  18.7266  32.6499314676  208   0 0 0 0
Ar  12.3927016334  18.7662  -3.2727929697  208   0 0 0 0
Ar  31.6597332064  18.8058  27.7806524046  208   0 0 0 0
Ar  -3.51334755241  18.8454  17.900315199  208   0 0 0 0
Ar  29.0867533691  18.885  1.43152977093  208   0 0 0 0
Ar  16.1767548231  18.9246  35.5860216193  208   0 0 0 0
Ar  2.62925791193  18.9642  1.69115906272  208   0 0 0 0
Ar  35.5043772428  19.0038  17.5281731682  208   0 0 0 0
Ar  0.57632539234  19.0434  28.0539932949  208   0 0 0 0
Ar  19.2152794606  19.083  -3.29114025658  208   0 0 0 0
Ar  26.6424389716  19.1226  32.400885751  208   0 0 0 0
Ar  -2.93419328819  19.1622  11.1065025008  208   0 0 0 0
Ar  33.2470416432  19.2018  6.83101543083  208   0 0 0 0
Ar  9.46401510063  19.2414  34.4145597722  208   0 0 0 0
Ar  8.36885971186  19.281  -1.97770212289  208   0 0 0 0
Ar  33.7503790778  19.3206  24.1082229929  208   0 0 0 0
Ar  -2.57346843778  19.3602  22.0189308773  208   0 0 0 0
Ar  25.6121137327  19.3998  -0.968872956421  208   0 0 0 0
Ar  20.3588015227  19.4394  35.0080239056  208   0 0 0 0
Ar  -0.0623035803814  19.479  4.9419268015  208   0 0 0 0
Ar  35.2921660798  19.5186  13.3144794323  208   0 0 0 0
Ar  3.57887902375  19.5582  31.0159235122  208   0 0 0 0
Ar  15.0019201681  19.5978  -3.44583017835  208   0 0 0 0
Ar  29.8519180053  19.6374  29.6689647138  208   0 0 0 0
Ar  -3.45410360174  19.677  15.2875933109  208   0 0 0 0
Ar  30.8060791975  19.7166  3.39865990251  208   0 0 0 0
Ar  13.5811950535  19.7562  35.295231437  208   0 0 0 0
Ar  4.73996098543  19.7958  0.154220664943  208   0 0 0 0
Ar  34.9846129161  19.8354  20.0860629811  208   0 0 0 0
Ar  -0.766286482265  19.875  25.8165824543  208   0 0 0 0
Ar  21.7153122876  19.9146  -2.54678886812  208   0 0 0 0
Ar  24.2961733664  19.9542  33.5387875996  208   0 0 0 0
Ar  -1.97142027404  19.9938  8.68403239562  208   0 0 0 0
Ar  34.1714867864  20.0334  9.26743810995  208   0 0 0 0
Ar  7.13817564923  20.073  33.2412581051  208   0 0 0 0
Ar  10.8760468568  20.1126  -2.68164879736  208   0 0 0 0
Ar  32.3761046925  20.1522  26.3191529492  208   0 0 0 0
Ar  -3.05163421215  20.1918  19.4609115951  208   0 0 0 0
Ar  27.6907892977  20.2314  0.595233057226  208   0 0 0 0
Ar  17.7702627747  20.271  35.2569259926  208   0 0 0 0
Ar  1.67899822222  20.3106  3.01177931085  208   0 0 0 0
Ar  35.3101472325  20.3502  15.9130069095  208   0 0 0 0
Ar  1.81233349166  20.3898  29.1114542375  208   0 0 0 0
Ar  17.5898514503  20.4294  -3.23306997336  208   0 0 0 0
Ar  27.7995887426  20.469  31.2581530835  208   0 0 0 0
Ar  -3.01261502955  20.5086  12.7307331737  208   0 0 0 0
Ar  32.2055821124  20.5482  5.58238593417  208   0 0 0 0
Ar  11.0756079056  20.5878  34.6288428382  208   0 0 0 0
Ar  7.03759738984  20.6274  -1.04479213636  208   0 0 0 0
Ar  34.0989354195  20.667  22.5206091956  208   0 0 0 0
Ar  -1.75561259115  20.7066  23.4234046366  208   0 0 0 0
Ar  24.0596406953  20.7462  -1.44916960236  208   0 0 0 0
Ar  21.8265581216  20.7858  34.3109100213  208   0 0 0 0
Ar  -0.670881740243  20.8254  6.44835530731  208   0 0 0 0
Ar  34.7206261089  20.865  11.7938050402  208   0 0 0 0
Ar  5.02869384016  20.9046  31.7484242067  208   0 0 0 0
Ar  13.4390557471  20.9442  -3.00380723068  208   0 0 0 0
Ar  30.7031140269  20.9838  28.2859239992  208   0 0 0 0
Ar  -3.14462532645  21.0234  16.8816334497  208   0 0 0 0
Ar  29.4994931433  21.063  2.43482593912  208   0 0 0 0
Ar  15.1951881165  21.1026  35.1203899292  208   0 0 0 0
Ar  3.6703327871  21.1422  1.3752189396  208   0 0 0 0
Ar  34.945551278  21.1818  18.4634688722  208   0 0 0 0
Ar  0.360601924256  21.2214  26.9844241966  208   0 0 0 0
Ar  20.0955179313  21.261  -2.6436945044  208   0 0 0 0
Ar  25.5539654333  21.3006  32.513860966  208   0 0 0 0
Ar  -2.20352495461  21.3402  10.2896576402  208   0 0 0 0
Ar  33.2556493408  21.3798  7.92858229139  208   0 0 0 0
Ar  8.7183738468  21.4194  33.6068447785  208   0 0 0 0
Ar  9.46557374938  21.459  -1.88125438078  208   0 0 0 0
Ar  32.8725209853  21.4986  24.7754492682  208   0 0 0 0
Ar  -2.37221956363  21.5382  20.9330629298  208   0 0 0 0
Ar  26.1943795963  21.5778  -0.0284452332035  208   0 0 0 0
Ar  19.2937313088  21.6174  34.703173074  208   0 0 0 0
Ar  0.932514315409  21.657  4.45043907141  208   0 0 0 0
Ar  34.8858516572  21.6966  14.348930706  208   0 0 0 0
Ar  3.18320376928  21.7362  29.9754313206  208   0 0 0 0
Ar  15.9961498405  21.7758  -2.94111574792  208   0 0 0 0
Ar  28.7749291676  21.8154  29.9646255796  208   0 0 0 0
Ar  -2.85495576949  21.855  14.3428827244  208   0 0 0 0
Ar  30.9983981626  21.8946  4.50258505704  208   0 0 0 0
Ar  12.6949114689  21.9342  34.6064895752  208   0 0 0 0
Ar  5.86096232085  21.9738  0.0676622171146  208   0 0 0 0
Ar  34.2119510676  22.0134  20.9054826228  208   0 0 0 0
Ar  -0.745601371561  22.053  24.6885789313  208   0 0 0 0
Ar  22.4599797178  22.0926  -1.69667010401  208   0 0 0 0
Ar  23.1713672146  22.1322  33.4103300584  208   0 0 0 0
Ar  -1.0510438658  22.1718  8.0213834802  208   0 0 0 0
Ar  33.9356924176  22.2114  10.3788116449  208   0 0 0 0
Ar  6.56412135889  22.251  32.2584999334  208   0 0 0 0
Ar  11.9638075318  22.2906  -2.33991956323  208   0 0 0 0
Ar  31.3394513768  22.3302  26.7987892401  208   0 0 0 0
Ar  -2.60633183766  22.3698  18.4067983033  208   0 0 0 0
Ar  28.0709932347  22.4094  1.67675576861  208   0 0 0 0
Ar  16.7595957148  22.449  34.7113569004  208   0 0 0 0
Ar  2.79590220894  22.4886  2.73516356005  208   0 0 0 0
Ar  34.6685390948  22.5282  16.8707529704  208   0 0 0 0
Ar  1.64256098388  22.5678  27.9690382034  208   0 0 0 0
Ar  18.4856119076  22.6074  -2.50054003834  208   0 0 0 0
Ar  26.641825906  22.647  31.3187626645  208   0 0 0 0
Ar  -2.19513045323  22.6866  11.905529766  208   0 0 0 0
Ar  32.1556710544  22.7262  6.74512251016  208   0 0 0 0
Ar  10.3289606645  22.7658  33.7331733205  208   0 0 0 0
Ar  8.19481738193  22.8054  -0.883983022191  208   0 0 0 0
Ar  33.1325985126  22.845  23.1813481202  208   0 0 0 0
Ar  -1.48451814008  22.8846  22.2822166663  208   0 0 0 0
Ar  24.6278355505  22.9242  -0.420369123647  208   0 0 0 0
Ar  20.7118497841  22.9638  33.9311343147  208   0 0 0 0
Ar  0.411560216343  23.0034  5.97856028764  208   0 0 0 0
Ar  34.2347571381  23.043  12.8717468975  208   0 0 0 0
Ar  4.66231727207  23.0826  30.6217073052  208   0 0 0 0
Ar  14.4701971658  23.1222  -2.41540078023  208   0 0 0 0
Ar  29.5419540703  23.1618  28.5447508524  208   0 0 0 0
Ar  -2.4581802803  23.2014  15.9069830281  208   0 0 0 0
Ar  29.6475691355  23.241  3.62021537713  208   0 0 0 0
Ar  14.286287749  23.2806  34.3413151612  208   0 0 0 0
Ar  4.86944401568  23.3202  1.34012992665  208   0 0 0 0
Ar  34.0801243612  23.3598  19.2978765456  208   0 0 0 0
Ar  0.439744276575  23.3994  25.7823022583  208   0 0 0 0
Ar  20.8472876602  23.439  -1.69901254622  208   0 0 0 0
Ar  24.359654135  23.4786  32.3202528112  208   0 0 0 0
Ar  -1.18744793218  23.5182  9.62799741124  208   0 0 0 0
Ar  32.9483604108  23.5578  9.10424605705  208   0 0 0 0
Ar  8.15355003141  23.5974  32.5279318173  208   0 0 0 0
Ar  10.6118330669  23.637  -1.46208984477  208   0 0 0 0
Ar  31.7399600857  23.6766  25.2375193389  208   0 0 0 0
Ar  -1.84399650723  23.7162  19.8267895036  208   0 0 0 0
Ar  26.5486465069  23.7558  1.14802299062  208   0 0 0 0
Ar  18.237755101  23.7954  34.0697033836  208   0 0 0 0
Ar  2.14267826486  23.835  4.20810564233  208   0 0 0 0
Ar  34.1519161023  23.8746  15.3446614537  208   0 0 0 0
Ar  3.05597151685  23.9142  28.7421678992  208   0 0 0 0
Ar  16.9221404532  23.9538  -2.11242942564  208   0 0 0 0
Ar  27.5294568673  23.9934  29.9745870461  208   0 0 0 0
Ar  -1.93812515057  24.033  13.4955861604  208   0 0 0 0
Ar  30.8899443439  24.0726  5.74917485384  208   0 0 0 0
Ar  11.934638973  24.1122  33.6089614635  208   0 0 0 0
Ar  7.09747344298  24.1518  0.294632412156  208   0 0 0 0
Ar  33.1419538569  24.1914  21.5711032527  208   0 0 0 0
Ar  -0.401066468626  24.231  23.4733498036  208   0 0 0 0
Ar  23.0240957155  24.2706  -0.563147783709  208   0 0 0 0
Ar  21.9885320994  24.3102  32.9502351375  208   0 0 0 0
Ar  0.136416707538  24.3498  7.56478322061  208   0 0 0 0
Ar  33.363086294  24.3894  11.51833045  208   0 0 0 0
Ar  6.2201464558  24.429  31.0272519452  208   0 0 0 0
Ar  13.0493749885  24.4686  -1.6588771337  208   0 0 0 0
Ar  30.0750463852  24.5082  27.0259831177  208   0 0 0 0
Ar  -1.82192697691  24.5478  17.3854341601  208   0 0 0 0
Ar  28.1782489579  24.5874  2.96329702467  208   0 0 0 0
Ar  15.8122105249  24.627  33.8296264635  208   0 0 0 0
Ar  4.09326201542  24.6666  2.7499683033  208   0 0 0 0
Ar  33.6964382686  24.7062  17.7349497613  208   0 0 0 0
Ar  1.78048609893  24.7458  26.6723778484  208   0 0 0 0
Ar  19.2580627368  24.7854  -1.44588935985  208   0 0 0 0
Ar  25.3574840751  24.825  31.0577382772  208   0 0 0 0
Ar  -1.06655488555  24.8646  11.2326498381  208   0 0 0 0
Ar  31.772658878  24.9042  8.00552658858  208   0 0 0 0
Ar  9.76266889371  24.9438  32.540033849  208   0 0 0 0
Ar  9.41976608369  24.9834  -0.3811849302  208   0 0 0 0
Ar  31.8849167885  25.023  23.6349108549  208   0 0 0 0
Ar  -0.865216958076  25.0626  21.1040376226  208   0 0 0 0
Ar  24.963466433  25.1022  0.871254252696  208   0 0 0 0
Ar  19.5914504915  25.1418  33.1996749422  208   0 0 0 0
Ar  1.73603312374  25.1814  5.76507191602  208   0 0 0 0
Ar  33.3965183176  25.221  13.9237596155  208   0 0 0 0
Ar  4.57414393294  25.2606  29.2758760723  208   0 0 0 0
Ar  15.4437162094  25.3002  -1.47675767933  208   0 0 0 0
Ar  28.1865581077  25.3398  28.5055121787  208   0 0 0 0
Ar  -1.42645813222  25.3794  15.0214720543  208   0 0 0 0
Ar  29.4799254492  25.419  4.97318024326  208   0 0 0 0
Ar  13.4976178526  25.4586  33.2247342866  208   0 0 0 0
Ar  6.20788252603  25.4982  1.63604848781  208   0 0 0 0
Ar  32.8877369698  25.5378  19.9816373367  208   0 0 0 0
Ar  0.86267480357  25.5774  24.4704802173  208   0 0 0 0
Ar  21.4189140427  25.617  -0.440631788898  208   0 0 0 0
Ar  23.086428049  25.6566  31.7727059462  208   0 0 0 0
Ar  0.126430255939  25.6962  9.17481683299  208   0 0 0 0
Ar  32.2797157348  25.7358  10.3271128231  208   0 0 0 0
Ar  7.82414878572  25.7754  31.169650157  208   0 0 0 0
Ar  11.7728978727  25.815  -0.676969196072  208   0 0 0 0
Ar  30.3488762364  25.8546  25.4388417185  208   0 0 0 0
Ar  -0.948095763148  25.8942  18.7385457582  208   0 0 0 0
Ar  26.6186722311  25.9338  2.55989633617  208   0 0 0 0
Ar  17.23282784  25.9734  33.0697536675  208   0 0 0 0
Ar  3.56301736547  26.013  4.27147372725  208   0 0 0 0
Ar  33.0556357176  26.0526  16.2563970625  208   0 0 0 0
Ar  3.25368030478  26.0922  27.3258938419  208   0 0 0 0
Ar  17.7315216689  26.1318  -0.928466841768  208   0 0 0 0
Ar  26.1298789388  26.1714  29.642760943  208   0 0 0 0
Ar  -0.675993447654  26.211  12.796922713  208   0 0 0 0
Ar  30.4254047591  26.2506  7.11943394682  208   0 0 0 0
Ar  11.3541763827  26.2902  32.278964714  208   0 0 0 0
Ar  8.42590902823  26.3298  0.88930107  208   0 0 0 0
Ar  31.7551059967  26.3694  22.0268363433  208   0 0 0 0
Ar  0.319976275869  26.409  22.1990146391  208   0 0 0 0
Ar  23.3495918195  26.4486  0.868915407845  208   0 0 0 0
Ar  20.7802376469  26.4882  32.1077237379  208   0 0 0 0
Ar  1.6015318368  26.5278  7.37395181166  208   0 0 0 0
Ar  32.405131924  26.5674  12.6490875909  208   0 0 0 0
Ar  6.1672777074  26.607  29.5416761895  208   0 0 0 0
Ar  14.0916462641  26.6466  -0.59258564189  208   0 0 0 0
Ar  28.5819248596  26.6862  26.9387617849  208   0 0 0 0
Ar  -0.655434634825  26.7258  16.4419485294  208   0 0 0 0
Ar  27.9500118746  26.7654  4.45083412715  208   0 0 0 0
Ar  14.9770653278  26.805  32.5720409016  208   0 0 0 0
Ar  5.56198033257  26.8446  3.1189237984  208   0 0 0 0
Ar  32.3577704991  26.8842  18.4530355751  208   0 0 0 0
Ar  2.2886286297  26.9238  25.2357036335  208   0 0 0 0
Ar  19.8512907175  26.9634  -0.0369773744055  208   0 0 0 0
Ar  23.9659559076  27.003  30.413174736  208   0 0 0 0
Ar  0.401020609579  27.0426  10.7710799427  208   0 0 0 0
Ar  30.9956650863  27.0822  9.3390446191  208   0 0 0 0
Ar  9.43848912568  27.1218  31.0260267705  208   0 0 0 0
Ar  10.6827614221  27.1614  0.52304407784  208   0 0 0 0
Ar  30.337263249  27.201  23.8170983225  208   0 0 0 0
Ar  0.159878897171  27.2406  19.9236140896  208   0 0 0 0
Ar  25.0002420012  27.2802  2.43931972933  208   0 0 0 0
Ar  18.5050752586  27.3198  32.0612126816  208   0 0 0 0
Ar  3.3109353604  27.3594  5.8759020558  208   0 0 0 0
Ar  32.1532708233  27.399  14.9052881722  208   0 0 0 0
Ar  4.83351453045  27.4386  27.7079400663  208   0 0 0 0
Ar  16.3103787329  27.4782  -0.138325758328  208   0 0 0 0
Ar  26.6395031125  27.5178  28.0979483722  208   0 0 0 0
Ar  -0.00339179339734  27.5574  14.2788204971  208   0 0 0 0
Ar  28.9258099932  27.597  6.48544592618  208   0 0 0 0
Ar  12.887158717  27.6366  31.7284534632  208   0 0 0 0
Ar  7.67157661723  27.6762  2.33377825252  208   0 0 0 0
Ar  31.3304439697  27.7158  20.4527679629  208   0 0 0 0
Ar  1.69979525048  27.7554  23.0688941443  208   0 0 0 0
Ar  21.7446994036  27.795  1.16478388063  208   0 0 0 0
Ar  21.7601214495  27.8346  30.8016842311  208   0 0 0 0
Ar  1.76649397325  27.8742  8.99920882397  208   0 0 0 0
Ar  31.1815165071  27.9138  11.5654508671  208   0 0 0 0
Ar  7.80230947392  27.9534  29.5088899125  208   0 0 0 0
Ar  12.9111753389  27.993  0.540491695273  208   0 0 0 0
Ar  28.6817343771  28.0326  25.3046079683  208   0 0 0 0
Ar  0.379571662388  28.0722  17.7117128471  208   0 0 0 0
Ar  26.3273839491  28.1118  4.21885941619  208   0 0 0 0
Ar  16.3280090993  28.1514  31.6420110648  208   0 0 0 0
Ar  5.19911716722  28.191  4.71944993703  208   0 0 0 0
Ar  31.5389526437  28.2306  17.0295470935  208   0 0 0 0
Ar  3.85661564945  28.2702  25.7273420502  208   0 0 0 0
Ar  18.3643577365  28.3098  0.665100854005  208   0 0 0 0
Ar  24.5834347579  28.3494  28.887960258  208   0 0 0 0
Ar  0.981572830157  28.389  12.3119497248  208   0 0 0 0
Ar  29.5231888912  28.4286  8.59946187773  208   0 0 0 0
Ar  11.0234407637  28.4682  30.5710170428  208   0 0 0 0
Ar  9.82558829011  28.5078  1.93314574645  208   0 0 0 0
Ar  30.0110188698  28.5474  22.1982049136  208   0 0 0 0
Ar  1.49835878593  28.587  20.8931166046  208   0 0 0 0
Ar  23.3577684697  28.6266  2.63438826291  208   0 0 0 0
Ar  19.5809325564  28.6662  30.8031560157  208   0 0 0 0
Ar  3.37324356013  28.7058  7.53143713888  208   0 0 0 0
Ar  30.9839391916  28.7454  13.7297261525  208   0 0 0 0
Ar  6.49150097135  28.785  27.7791421493  208   0 0 0 0
Ar  15.0423954307  28.8246  0.934529176694  208   0 0 0 0
Ar  26.8441274864  28.8642  26.4481468363  208   0 0 0 0
Ar  0.965831864318  28.9038  15.6313540038  208   0 0 0 0
Ar  27.2947902871  28.9434  6.14832348888  208   0 0 0 0
Ar  14.3158328023  28.983  30.8693754866  208   0 0 0 0
Ar  7.20370982305  29.0226  3.93552340631  208   0 0 0 0
Ar  30.5873468726  29.0622  18.9568493589  208   0 0 0 0
Ar  3.26194126723  29.1018  23.6649338336  208   0 0 0 0
Ar  20.1908639773  29.1414  1.78677886868  208   0 0 0 0
Ar  22.4809613934  29.181  29.289231168  208   0 0 0 0
Ar  2.26300991879  29.2206  10.6012588684  208   0 0 0 0
Ar  29.7285584839  29.2602  10.7239632  208   0 0 0 0
Ar  9.4425565228  29.2998  29.141459897  208   0 0 0 0
Ar  11.9539465427  29.3394  1.92450326858  208   0 0 0 0
Ar  28.4462060724  29.379  23.6364362394  208   0 0 0 0
Ar  1.6855926515  29.4186  18.7790522922  208   0 0 0 0
Ar  24.6417526491  29.4582  4.32047762645  208   0 0 0 0
Ar  17.499139132  29.4978  30.4225635784  208   0 0 0 0
Ar  5.16563576492  29.5374  6.41194569265  208   0 0 0 0
Ar  30.4141493731  29.577  15.7615979198  208   0 0 0 0
Ar  5.54531399378  29.6166  25.896287094  208   0 0 0 0
Ar  17.0071704282  29.6562  1.68774917012  208   0 0 0 0
Ar  24.8873801965  29.6958  27.2137245845  208   0 0 0 0
Ar  1.89515972991  29.7354  13.7502297808  208   0 0 0 0
Ar  27.8740214452  29.775  8.16180355268  208   0 0 0 0
Ar  12.5341520397  29.8146  29.7727531319  208   0 0 0 0
Ar  9.25632109578  29.8542  3.54676158329  208   0 0 0 0
Ar  29.3336579044  29.8938  20.6241890923  208   0 0 0 0
Ar  3.06612330309  29.9334  21.5910845413  208   0 0 0 0
Ar  21.7299864945  29.973  3.18598060959  208   0 0 0 0
Ar  20.4039059289  30.0126  29.2912986761  208   0 0 0 0
Ar  3.79494436419  30.0522  9.20309069864  208   0 0 0 0
Ar  29.537742496  30.0918  12.7862085102  208   0 0 0 0
Ar  8.19683268307  30.1314  27.4906889189  208   0 0 0 0
Ar  13.983534998  30.171  2.30567073755  208   0 0 0 0
Ar  26.6914912365  30.2106  24.719570518  208   0 0 0 0
Ar  2.25293710961  30.2502  16.7996450211  208   0 0 0 0
Ar  25.5535831753  30.2898  6.16337522942  208   0 0 0 0
Ar  15.5869648925  30.3294  29.6748226227  208   0 0 0 0
Ar  7.08022214256  30.369  5.67862782927  208   0 0 0 0
Ar  29.493348323  30.4086  17.5901059805  208   0 0 0 0
Ar  4.99615085981  30.4482  23.927097018  208   0 0 0 0
Ar  18.7363389663  30.4878  2.77278129593  208   0 0 0 0
Ar  22.8811156366  30.5274  27.5747061206  208   0 0 0 0
Ar  3.13417728812  30.567  12.1351795031  208   0 0 0 0
Ar  28.0444444397  30.6066  10.1873200966  208   0 0 0 0
Ar  11.0469767833  30.6462  28.3913243397  208   0 0 0 0
Ar  11.2831273465  30.6858  3.56760335848  208   0 0 0 0
Ar  27.8226212028  30.7254  21.9708734074  208   0 0 0 0
Ar  3.27725869894  30.765  19.5809357538  208   0 0 0 0
Ar  22.924814145  30.8046  4.8127027458  208   0 0 0 0
Ar  18.4281916948  30.8442  28.8925106417  208   0 0 0 0
Ar  5.52242993146  30.8838  8.1701363214  208   0 0 0 0
Ar  28.9555909286  30.9234  14.7100349486  208   0 0 0 0
Ar  7.33433143147  30.963  25.6782331666  208   0 0 0 0
Ar  15.8384955261  31.0026  3.06528432617  208   0 0 0 0
Ar  24.810593892  31.0422  25.4045511613  208   0 0 0 0
Ar  3.18254825322  31.0818  15.0299058634  208   0 0 0 0
Ar  26.0555510323  31.1214  8.09559261364  208   0 0 0 0
Ar  13.918037373  31.161  28.5841785454  208   0 0 0 0
Ar  9.04619275871  31.2006  5.36353992246  208   0 0 0 0
Ar  28.2520604389  31.2402  19.1435331406  208   0 0 0 0
Ar  4.87014900914  31.2798  21.9452334296  208   0 0 0 0
Ar  20.1606076146  31.3194  4.15298724871  208   0 0 0 0
Ar  20.9013581403  31.359  27.5110989193  208   0 0 0 0
Ar  4.64033839521  31.3986  10.8525763455  208   0 0 0 0
Ar  27.7923961487  31.4382  12.1469898442  208   0 0 0 0
Ar  9.91728375563  31.4778  26.7732979971  208   0 0 0 0
Ar  13.2049015796  31.5174  4.00524026948  208   0 0 0 0
Ar  26.1078265302  31.557  22.9377747914  208   0 0 0 0
Ar  3.89596798028  31.5966  17.7145354542  208   0 0 0 0
Ar  23.7204950428  31.6362  6.60829074632  208   0 0 0 0
Ar  16.6341612628  31.6758  28.0988741562  208   0 0 0 0
Ar  7.38209487487  31.7154  7.55257454104  208   0 0 0 0
Ar  27.9947525791  31.755  16.4153316102  208   0 0 0 0
Ar  6.90019232462  31.7946  23.7718056249  208   0 0 0 0
Ar  17.4394712558  31.8342  4.1840812754  208   0 0 0 0
Ar  22.8751670935  31.8738  25.6516107377  208   0 0 0 0
Ar  4.44861788737  31.9134  13.5479228199  208   0 0 0 0
Ar  26.1135588469  31.953  10.041959615  208   0 0 0 0
Ar  12.5686718982  31.9926  27.1828770856  208   0 0 0 0
Ar  10.9853015484  32.0322  5.49484758977  208   0 0 0 0
Ar  26.7288235138  32.0718  20.3478261983  208   0 0 0 0
Ar  5.18931775189  32.1114  20.0315624888  208   0 0 0 0
Ar  21.2086572694  32.151  5.78371816699  208   0 0 0 0
Ar  19.0311272803  32.1906  27.0072368698  208   0 0 0 0
Ar  6.36309717355  32.2302  9.97055367889  208   0 0 0 0
Ar  27.1087027864  32.2698  13.956113612  208   0 0 0 0
Ar  9.20959188553  32.3094  24.9748726072  208   0 0 0 0
Ar  14.9357421715  32.349  4.86224210697  208   0 0 0 0
Ar  24.2508532958  32.3886  23.4643922687  208   0 0 0 0
Ar  4.91814199287  32.4282  16.0785108745  208   0 0 0 0
Ar  24.0609225562  32.4678  8.50608007665  208   0 0 0 0
Ar  15.1086946042  32.5074  26.9212167131  208   0 0 0 0
Ar  9.30250587896  32.547  7.4017699221  208   0 0 0 0
Ar  26.6727787163  32.5866  17.8154311943  208   0 0 0 0
Ar  6.94071993745  32.6262  21.8472751817  208   0 0 0 0
Ar  18.7004621771  32.6658  5.63781303376  208   0 0 0 0
Ar  20.9651691005  32.7054  25.4197920873  208   0 0 0 0
Ar  6.02025613675  32.745  12.4385878973  208   0 0 0 0
Ar  25.6922535769  32.7846  11.9187837827  208   0 0 0 0
Ar  11.6222285319  32.8242  25.5083669096  208   0 0 0 0
Ar  12.8104819094  32.8638  6.10207350355  208   0 0 0 0
Ar  24.9675392162  32.9034  21.1215616355  208   0 0 0 0
Ar  5.97715278721  32.943  18.2761642418  208   0 0 0 0
Ar  21.8013840032  32.9826  7.61474468163  208   0 0 0 0
Ar  17.3631594026  33.0222  26.045819559  208   0 0 0 0
Ar  8.24603720733  33.0618  9.56553618047  208   0 0 0 0
Ar  25.9824011975  33.1014  15.5196481051  208   0 0 0 0
Ar  8.99731171228  33.141  23.0585002044  208   0 0 0 0
Ar  16.3786362405  33.1806  6.14311656499  208   0 0 0 0
Ar  22.3200319442  33.2202  23.4806386602  208   0 0 0 0
Ar  6.3417352984  33.2598  14.7715232312  208   0 0 0 0
Ar  23.8796160775  33.2994  10.4320194595  208   0 0 0 0
Ar  13.9518001372  33.339  25.3682179624  208   0 0 0 0
Ar  11.2040429467  33.3786  7.7803390358  208   0 0 0 0
Ar  25.0050523854  33.4182  18.8092552348  208   0 0 0 0
Ar  7.51443414879  33.4578  19.9896901748  208   0 0 0 0
Ar  19.5195692825  33.4974  7.40433035884  208   0 0 0 0
Ar  19.1709546703  33.537  24.6548815602  208   0 0 0 0
Ar  7.86848473869  33.5766  11.8044022263  208   0 0 0 0
Ar  24.7419167434  33.6162  13.6305001982  208   0 0 0 0
Ar  11.1816263674  33.6558  23.5965255297  208   0 0 0 0
Ar  14.4210216231  33.6954  7.23026915962  208   0 0 0 0
Ar  23.0110704261  33.735  21.3615494413  208   0 0 0 0
Ar  7.27387942361  33.7746  16.7848770636  208   0 0 0 0
Ar  21.8354343162  33.8142  9.59610681609  208   0 0 0 0
Ar  16.0084486031  33.8538  24.5916001948  208   0 0 0 0
Ar  10.2319529323  33.8934  9.74097512285  208   0 0 0 0
Ar  24.383375683  33.933  16.7213534563  208   0 0 0 0
Ar  9.38396991951  33.9726  21.0888300105  208   0 0 0 0
Ar  17.411936899  34.0122  7.87268667789  208   0 0 0 0
Ar  20.3877177961  34.0518  22.8828897521  208   0 0 0 0
Ar  8.18609703847  34.0914  13.920870739  208   0 0 0 0
Ar  23.072786718  34.131  12.3057034912  208   0 0 0 0
Ar  13.2967680453  34.1706  23.4262164983  208   0 0 0 0
Ar  12.9978049812  34.2102  8.79234750219  208   0 0 0 0
Ar  22.9838621229  34.2498  19.257069537  208   0 0 0 0
Ar  8.72583340076  34.2894  18.2970183279  208   0 0 0 0
Ar  19.7500335694  34.329  9.48506501303  208   0 0 0 0
Ar  17.6002826635  34.3686  23.2517495232  208   0 0 0 0
Ar  9.98803493876  34.4082  11.7998794837  208   0 0 0 0
Ar  23.1565496717  34.4478  15.0586466925  208   0 0 0 0
Ar  11.4100368922  34.4874  21.4598630841  208   0 0 0 0
Ar  15.6866137255  34.527  8.98657556552  208   0 0 0 0
Ar  20.8798656824  34.5666  20.8948545431  208   0 0 0 0
Ar  9.18808417466  34.6062  15.7012751535  208   0 0 0 0
Ar  21.1267648082  34.6458  11.6985190143  208   0 0 0 0
Ar  15.1256047292  34.6854  22.5342211433  208   0 0 0 0
Ar  12.281563596  34.725  10.6936518045  208   0 0 0 0
Ar  22.1991592571  34.7646  17.3853865252  208   0 0 0 0
Ar  10.5810592232  34.8042  19.1166307569  208   0 0 0 0
Ar  17.8398322222  34.8438  10.1658667447  208   0 0 0 0
Ar  18.5180937573  34.8834  21.4425460004  208   0 0 0 0
Ar  10.5689096164  34.923  13.7457520366  208   0 0 0 0
Ar  21.3918055427  34.9626  14.0470428316  208   0 0 0 0
Ar  13.3904809573  35.0022  20.9744804141  208   0 0 0 0
Ar  14.5845558131  35.0418  10.7100493285  208   0 0 0 0
Ar  20.4852138762  35.0814  18.8788557271  208   0 0 0 0
Ar  10.8752741345  35.121  16.89188756  208   0 0 0 0
Ar  19.071698649  35.1606  12.0073780812  208   0 0 0 0
Ar  16.4047943243  35.2002  20.8762695676  208   0 0 0 0
Ar  12.5095800723  35.2398  12.7944573818  208   0 0 0 0
Ar  20.5609227096  35.2794  16.0150103102  208   0 0 0 0
Ar  12.7383826964  35.319  18.9646771131  208   0 0 0 0
Ar  16.3720961088  35.3586  11.7970961253  208   0 0 0 0
Ar  18.4377930465  35.3982  19.212295025  208   0 0 0 0
Ar  12.2102880058  35.4378  15.322139443  208   0 0 0 0
Ar  19.0639221072  35.4774  14.0595247329  208   0 0 0 0
Ar  15.0946525013  35.517  19.298900387  208   0 0 0 0
Ar  14.5323194808  35.5566  13.1737432254  208   0 0 0 0
Ar  18.7391444882  35.5962  17.0144944602  208   0 0 0 0
Ar  13.538185269  35.6358  17.0063229835  208   0 0 0 0
Ar  16.9882598139  35.6754  13.8866222788  208   0 0 0 0
Ar  16.5774666382  35.715  17.890559208  208   0 0 0 0
Ar  14.6672130056  35.7546  15.2297956013  208   0 0 0 0
Ar  16.8762615207  35.7942  16.002  208   0 0 0 0
FE 15.991 16.014 16.002 -1 0   0   0   0
H 16.625 19.785 19.439 24 7 0 0 0 
H 15.957 15.632 19.267 12 9 0 0 0 
N 16.167 17.138 17.717 23 1 6 9 0 
C 16.295 17.721 19.908 11 9 7 8 0 
C 16.383 18.461 17.798 11 10 4 7 0 
N 16.465 18.844 19.108 23 6 2 5 0 
H 16.320 17.764 20.983 12 5 0 0 0 
C 16.112 16.670 19.040 11 4 3 5 0 
H 16.493 19.138 16.971 12 6 0 0 0 
H 14.145 12.026 18.665 24 16 0 0 0 
H 17.808 13.624 17.349 12 18 0 0 0 
N 15.758 14.305 17.120 23 1 15 18 0 
C 16.215 12.396 18.261 11 18 16 17 0 
C 14.602 13.771 17.550 11 13 19 16 0 
N 14.845 12.619 18.243 23 15 14 11 0 
H 16.660 11.543 18.747 12 14 0 0 0 
C 16.772 13.442 17.565 11 13 12 14 0 
H 13.618 14.165 17.378 12 15 0 0 0 
H 21.011 15.986 17.108 24 25 0 0 0 
H 18.322 14.521 14.221 12 27 0 0 0 
N 18.029 15.734 15.999 23 27 1 24 0 
C 20.108 15.033 15.415 11 26 27 25 0 
C 18.909 16.187 16.909 11 22 25 28 0 
N 20.172 15.781 16.583 23 23 24 20 0 
H 20.979 14.598 14.955 12 23 0 0 0 
C 18.781 15.008 15.061 11 21 23 22 0 
H 18.678 16.771 17.779 12 24 0 0 0 
H 11.166 17.345 17.179 24 34 0 0 0 
H 13.319 15.190 14.273 12 36 0 0 0 
N 13.952 16.291 16.034 23 36 1 33 0 
C 11.752 16.171 15.485 11 35 36 34 0 
C 13.242 16.971 16.950 11 31 34 37 0 
N 11.910 16.917 16.646 23 32 33 29 0 
H 10.789 15.983 15.042 12 32 0 0 0 
C 13.019 15.788 15.113 11 30 32 31 0 
H 13.638 17.479 17.810 12 33 0 0 0 
N 15.836 14.908 14.276 23 39 42 1 0 
C 15.910 15.365 13.015 11 40 46 38 0 
N 15.784 14.329 12.133 23 45 41 39 0 
C 15.623 13.153 12.852 11 40 43 42 0 
C 15.657 13.519 14.177 11 41 38 44 0 
H 15.505 12.193 12.379 12 41 0 0 0 
H 15.577 12.893 15.045 12 42 0 0 0 
H 15.809 14.406 11.125 24 40 0 0 0 
H 16.059 16.385 12.717 12 39 0 0 0 
N 16.202 17.718 14.869 23 52 49 1 0 
N 15.747 19.545 13.689 23 51 50 49 0 
C 15.219 18.520 14.424 11 48 55 47 0 
C 17.127 19.399 13.655 11 53 48 52 0 
H 15.220 20.282 13.241 24 48 0 0 0 
C 17.401 18.267 14.387 11 50 54 47 0 
H 17.772 20.085 13.132 12 50 0 0 0 
H 18.353 17.813 14.589 12 52 0 0 0 
H 14.167 18.390 14.598 12 49 0 0 0 
O 19.261 15.641 13.311 186 57 58 0 0
H 18.801 16.461 12.971 187 56 0 0 0
H 20.241 15.831 13.401 187 56 0 0 0
O 9.300 16.781 14.651 186 60 61 0 0
H 9.060 16.601 13.701 187 59 0 0 0
H 9.600 17.721 14.751 187 59 0 0 0
O 19.921 17.941 18.511 186 63 64 0 0
H 19.511 17.201 19.041 187 62 0 0 0
H 20.561 18.451 19.091 187 62 0 0 0
O 19.921 18.211 15.711 186 66 67 0 0
H 19.821 18.061 16.701 187 65 0 0 0
H 19.061 18.571 15.351 187 65 0 0 0
O 14.661 14.171 9.531 186 69 70 0 0
H 14.071 14.231 10.331 187 68 0 0 0
H 14.511 13.291 9.071 187 68 0 0 0
O 15.471 20.841 17.291 186 72 73 0 0
H 15.421 21.211 18.211 187 71 0 0 0
H 14.751 20.151 17.171 187 71 0 0 0
O 17.541 12.231 15.881 186 75 76 0 0
H 18.451 11.841 15.751 187 74 0 0 0
H 17.621 13.191 16.121 187 74 0 0 0
O 15.401 21.361 19.871 186 78 79 0 0
H 14.791 20.611 20.101 187 77 0 0 0
H 15.621 21.881 20.701 187 77 0 0 0
O 22.161 15.101 13.291 186 81 82 0 0
H 21.951 14.661 12.421 187 80 0 0 0
H 23.131 15.361 13.321 187 80 0 0 0
O 18.991 13.101 12.821 186 84 85 0 0
H 19.521 12.611 13.501 187 83 0 0 0
H 19.211 14.081 12.871 187 83 0 0 0
O 9.801 15.731 17.001 186 87 88 0 0
H 9.601 16.171 16.121 187 86 0 0 0
H 10.191 14.821 16.841 187 86 0 0 0
O 16.381 10.991 10.791 186 90 91 0 0
H 16.431 11.801 11.381 187 89 0 0 0
H 15.521 11.011 10.281 187 89 0 0 0
O 18.891 15.961 19.791 186 93 94 0 0
H 18.701 15.001 20.001 187 92 0 0 0
H 18.561 16.541 20.541 187 92 0 0 0
O 22.341 12.881 14.901 186 96 97 0 0
H 22.211 13.811 14.561 187 95 0 0 0
H 21.501 12.361 14.771 187 95 0 0 0
O 17.591 17.471 11.541 186 99 100 0 0
H 18.201 17.771 10.811 187 98 0 0 0
H 17.211 16.581 11.321 187 98 0 0 0
O 11.941 16.121 18.931 186 102 103 0 0
H 12.001 15.191 19.301 187 101 0 0 0
H 11.351 16.121 18.131 187 101 0 0 0
O 17.281 9.351 18.541 186 105 106 0 0
H 16.821 9.281 17.651 187 104 0 0 0
H 16.661 9.791 19.201 187 104 0 0 0
O 14.241 20.761 11.121 186 108 109 0 0
H 14.761 20.111 11.671 187 107 0 0 0
H 13.751 21.391 11.731 187 107 0 0 0
O 18.421 17.671 22.211 186 111 112 0 0
H 18.961 17.381 23.011 187 110 0 0 0
H 18.721 18.571 21.921 187 110 0 0 0
O 11.271 13.411 16.901 186 114 115 0 0
H 11.741 13.411 17.781 187 113 0 0 0
H 10.791 12.541 16.791 187 113 0 0 0
O 22.521 17.411 15.601 186 117 118 0 0
H 21.611 17.821 15.581 187 116 0 0 0
H 22.451 16.471 15.921 187 116 0 0 0
O 17.091 22.471 13.811 186 120 121 0 0
H 17.821 23.161 13.851 187 119 0 0 0
H 17.371 21.721 13.221 187 119 0 0 0
O 13.471 10.591 12.341 186 123 124 0 0
H 13.711 9.961 11.601 187 122 0 0 0
H 12.571 10.991 12.161 187 122 0 0 0
O 10.131 19.671 17.701 186 126 127 0 0
H 10.191 20.521 17.181 187 125 0 0 0
H 10.451 18.911 17.131 187 125 0 0 0
O 15.251 9.991 20.521 186 129 130 0 0
H 14.621 9.231 20.651 187 128 0 0 0
H 15.731 10.171 21.381 187 128 0 0 0
O 12.931 12.281 14.231 186 132 133 0 0
H 13.301 11.551 13.651 187 131 0 0 0
H 13.451 12.331 15.081 187 131 0 0 0
O 11.831 13.351 19.811 186 135 136 0 0
H 10.841 13.241 19.831 187 134 0 0 0
H 12.171 13.501 20.741 187 134 0 0 0
O 13.521 19.141 20.301 186 138 139 0 0
H 13.871 18.731 19.461 187 137 0 0 0
H 12.621 18.761 20.501 187 137 0 0 0
O 10.641 13.471 13.401 186 141 142 0 0
H 9.841 13.241 13.951 187 140 0 0 0
H 11.471 13.211 13.891 187 140 0 0 0
O 12.721 14.451 11.421 186 144 145 0 0
H 13.191 14.581 12.291 187 143 0 0 0
H 12.061 13.711 11.511 187 143 0 0 0
O 20.831 13.141 18.441 186 147 148 0 0
H 20.181 12.411 18.231 187 146 0 0 0
H 20.871 13.281 19.421 187 146 0 0 0
O 17.771 22.041 16.421 186 150 151 0 0
H 17.601 22.351 15.481 187 149 0 0 0
H 16.931 21.671 16.801 187 149 0 0 0
O 18.701 13.261 20.621 186 153 154 0 0
H 17.771 13.471 20.311 187 152 0 0 0
H 18.801 12.271 20.751 187 152 0 0 0
O 13.691 9.501 16.601 186 156 157 0 0
H 14.081 10.391 16.801 187 155 0 0 0
H 13.791 9.301 15.631 187 155 0 0 0
O 20.211 11.371 14.661 186 159 160 0 0
H 20.431 10.761 15.421 187 158 0 0 0
H 20.311 10.881 13.801 187 158 0 0 0
O 12.741 22.481 12.621 186 162 163 0 0
H 12.951 23.221 13.261 187 161 0 0 0
H 11.851 22.651 12.191 187 161 0 0 0
O 16.671 17.141 24.341 186 165 166 0 0
H 16.261 16.911 23.461 187 164 0 0 0
H 16.491 16.401 24.991 187 164 0 0 0
O 11.601 20.691 14.771 186 168 169 0 0
H 11.601 21.331 15.541 187 167 0 0 0
H 11.881 21.171 13.941 187 167 0 0 0
O 21.111 17.851 12.411 186 171 172 0 0
H 21.681 17.201 12.911 187 170 0 0 0
H 20.951 17.521 11.481 187 170 0 0 0
O 14.001 19.691 22.881 186 174 175 0 0
H 13.761 19.321 21.981 187 173 0 0 0
H 14.991 19.851 22.921 187 173 0 0 0
O 14.931 17.671 9.591 186 177 178 0 0
H 15.261 18.311 8.901 187 176 0 0 0
H 15.591 17.611 10.341 187 176 0 0 0
O 18.411 20.371 9.631 186 180 181 0 0
H 18.801 19.521 9.271 187 179 0 0 0
H 17.431 20.391 9.441 187 179 0 0 0
O 16.741 8.830 12.541 186 183 184 0 0
H 16.471 7.940 12.171 187 182 0 0 0
H 16.751 9.510 11.811 187 182 0 0 0
O 19.371 22.071 18.951 186 186 187 0 0
H 18.451 21.791 18.661 187 185 0 0 0
H 19.681 22.841 18.391 187 185 0 0 0
O 19.341 20.281 21.801 186 189 190 0 0
H 19.171 21.111 21.261 187 188 0 0 0
H 20.241 19.911 21.581 187 188 0 0 0
O 19.671 10.131 17.261 186 192 193 0 0
H 18.901 9.801 17.801 187 191 0 0 0
H 20.521 9.831 17.681 187 191 0 0 0
O 20.641 21.471 14.981 186 195 196 0 0
H 19.841 22.071 14.851 187 194 0 0 0
H 20.541 20.981 15.841 187 194 0 0 0
O 8.880 15.141 11.951 186 198 199 0 0
H 8.650 14.891 11.011 187 197 0 0 0
H 9.490 14.451 12.341 187 197 0 0 0
O 17.261 19.971 23.851 186 201 202 0 0
H 17.991 19.801 23.181 187 200 0 0 0
H 16.951 19.101 24.231 187 200 0 0 0
O 12.521 17.311 11.281 186 204 205 0 0
H 13.361 17.361 10.741 187 203 0 0 0
H 12.291 16.351 11.461 187 203 0 0 0
O 23.231 12.661 17.271 186 207 208 0 0
H 22.731 12.671 16.411 187 206 0 0 0
H 22.601 12.481 18.031 187 206 0 0 0
O 19.011 10.771 21.621 186 210 211 0 0
H 20.001 10.661 21.531 187 209 0 0 0
H 18.611 9.911 21.941 187 209 0 0 0
O 13.031 8.380 19.041 186 213 214 0 0
H 13.371 7.450 19.191 187 212 0 0 0
H 13.211 8.650 18.091 187 212 0 0 0
O 11.111 17.761 20.991 186 216 217 0 0
H 10.511 17.141 21.491 187 215 0 0 0
H 11.421 17.321 20.141 187 215 0 0 0
O 16.221 22.291 22.361 186 219 220 0 0
H 16.241 21.531 23.001 187 218 0 0 0
H 15.741 23.061 22.761 187 218 0 0 0
O 14.291 11.731 8.670 186 222 223 0 0
H 13.741 10.891 8.600 187 221 0 0 0
H 14.551 12.021 7.750 187 221 0 0 0
O 17.301 9.341 15.171 186 225 226 0 0
H 17.681 10.251 15.321 187 224 0 0 0
H 17.221 9.171 14.181 187 224 0 0 0
O 13.881 15.731 23.391 186 228 229 0 0
H 14.551 15.851 22.651 187 227 0 0 0
H 13.481 16.621 23.621 187 227 0 0 0
O 9.150 19.511 14.021 186 231 232 0 0
H 9.400 19.311 13.071 187 230 0 0 0
H 9.870 20.071 14.441 187 230 0 0 0
O 18.611 15.691 8.510 186 234 235 0 0
H 17.901 15.571 7.810 187 233 0 0 0
H 18.621 14.901 9.110 187 233 0 0 0
O 10.831 9.841 19.491 186 237 238 0 0
H 10.601 10.371 18.671 187 236 0 0 0
H 11.641 9.281 19.301 187 236 0 0 0
O 21.691 20.751 12.311 186 240 241 0 0
H 21.461 21.121 13.211 187 239 0 0 0
H 21.391 19.801 12.251 187 239 0 0 0
O 9.030 19.481 19.951 186 243 244 0 0
H 9.540 19.491 19.091 187 242 0 0 0
H 9.590 19.061 20.661 187 242 0 0 0
O 23.661 19.121 17.401 186 246 247 0 0
H 23.241 18.551 16.701 187 245 0 0 0
H 23.001 19.811 17.721 187 245 0 0 0
O 14.401 8.560 13.981 186 249 250 0 0
H 13.831 9.080 13.351 187 248 0 0 0
H 15.361 8.680 13.741 187 248 0 0 0
O 15.551 15.111 7.030 186 252 253 0 0
H 14.981 14.951 7.840 187 251 0 0 0
H 14.961 15.211 6.230 187 251 0 0 0
O 19.451 12.581 10.221 186 255 256 0 0
H 19.401 12.571 11.221 187 254 0 0 0
H 18.621 12.171 9.841 187 254 0 0 0
O 8.300 12.731 14.221 186 258 259 0 0
H 8.250 13.061 15.171 187 257 0 0 0
H 7.440 12.921 13.761 187 257 0 0 0
O 16.411 11.081 22.941 186 261 262 0 0
H 17.271 11.101 22.421 187 260 0 0 0
H 16.551 11.551 23.821 187 260 0 0 0
O 15.871 7.790 16.701 186 264 265 0 0
H 14.951 8.170 16.651 187 263 0 0 0
H 16.471 8.260 16.051 187 263 0 0 0
O 6.880 16.621 17.161 186 267 268 0 0
H 6.320 17.431 17.251 187 266 0 0 0
H 7.400 16.661 16.301 187 266 0 0 0
O 12.521 13.481 22.501 186 270 271 0 0
H 13.021 14.251 22.901 187 269 0 0 0
H 11.571 13.501 22.821 187 269 0 0 0
O 21.591 18.971 20.331 186 273 274 0 0
H 22.081 19.811 20.121 187 272 0 0 0
H 22.211 18.321 20.781 187 272 0 0 0
O 21.971 14.351 10.611 186 276 277 0 0
H 21.191 14.041 10.081 187 275 0 0 0
H 22.551 14.931 10.041 187 275 0 0 0
O 19.401 24.181 13.861 186 279 280 0 0
H 20.321 24.171 13.451 187 278 0 0 0
H 19.341 24.921 14.531 187 278 0 0 0
O 13.601 8.620 10.451 186 282 283 0 0
H 12.851 8.620 9.791 187 281 0 0 0
H 13.971 7.700 10.541 187 281 0 0 0
O 24.801 15.671 12.841 186 285 286 0 0
H 24.751 16.491 13.411 187 284 0 0 0
H 25.691 15.641 12.391 187 284 0 0 0
O 15.931 20.831 8.820 186 288 289 0 0
H 15.091 20.821 9.360 187 287 0 0 0
H 15.951 21.661 8.260 187 287 0 0 0
O 25.501 16.621 17.161 186 291 292 0 0
H 24.941 17.431 17.251 187 290 0 0 0
H 26.021 16.661 16.301 187 290 0 0 0
O 25.341 13.911 16.241 186 294 295 0 0
H 24.561 13.411 16.621 187 293 0 0 0
H 25.311 14.861 16.551 187 293 0 0 0
O 11.111 11.951 11.001 186 297 298 0 0
H 10.711 12.391 11.811 187 296 0 0 0
H 10.701 12.321 10.171 187 296 0 0 0
O 20.871 21.371 9.961 186 300 301 0 0
H 21.221 21.201 10.881 187 299 0 0 0
H 19.991 20.921 9.841 187 299 0 0 0
O 19.021 24.061 11.141 186 303 304 0 0
H 19.871 23.731 10.731 187 302 0 0 0
H 19.151 24.211 12.121 187 302 0 0 0
O 23.501 13.851 20.361 186 306 307 0 0
H 22.631 13.701 20.831 187 305 0 0 0
H 23.331 14.111 19.411 187 305 0 0 0
O 17.951 10.661 8.730 186 309 310 0 0
H 17.331 10.511 7.970 187 308 0 0 0
H 17.431 10.771 9.580 187 308 0 0 0
O 10.011 18.961 11.541 186 312 313 0 0
H 9.381 18.241 11.231 187 311 0 0 0
H 10.941 18.601 11.541 187 311 0 0 0
O 9.801 11.161 17.191 186 315 316 0 0
H 8.811 11.221 17.291 187 314 0 0 0
H 10.031 10.361 16.631 187 314 0 0 0
O 13.511 24.521 14.331 186 318 319 0 0
H 13.791 24.091 15.181 187 317 0 0 0
H 13.761 25.481 14.341 187 317 0 0 0
O 8.590 13.741 18.781 186 321 322 0 0
H 8.130 13.891 19.661 187 320 0 0 0
H 9.030 14.591 18.481 187 320 0 0 0
O 19.501 18.011 9.270 186 324 325 0 0
H 19.081 17.151 9.000 187 323 0 0 0
H 20.441 18.041 8.930 187 323 0 0 0
O 6.720 13.911 16.241 186 327 328 0 0
H 5.940 13.411 16.621 187 326 0 0 0
H 6.690 14.861 16.551 187 326 0 0 0
O 16.571 24.661 12.061 186 330 331 0 0
H 16.191 23.971 12.681 187 329 0 0 0
H 17.391 24.301 11.621 187 329 0 0 0
O 13.021 8.550 21.711 186 333 334 0 0
H 12.161 8.240 22.131 187 332 0 0 0
H 12.981 8.410 20.721 187 332 0 0 0
O 13.941 23.311 16.741 186 336 337 0 0
H 13.741 23.741 17.621 187 335 0 0 0
H 14.721 22.691 16.831 187 335 0 0 0
O 12.811 22.071 9.441 186 339 340 0 0
H 11.951 21.571 9.311 187 338 0 0 0
H 13.431 21.531 10.001 187 338 0 0 0
O 17.191 24.471 18.311 186 342 343 0 0
H 16.931 25.361 17.951 187 341 0 0 0
H 17.171 23.791 17.581 187 341 0 0 0
O 16.641 12.801 6.570 186 345 346 0 0
H 17.631 12.881 6.710 187 344 0 0 0
H 16.191 13.641 6.880 187 344 0 0 0
O 12.271 15.701 7.930 186 348 349 0 0
H 12.481 16.441 7.280 187 347 0 0 0
H 12.951 15.701 8.660 187 347 0 0 0
O 6.200 17.861 14.391 186 351 352 0 0
H 5.280 17.691 14.741 187 350 0 0 0
H 6.480 18.781 14.651 187 350 0 0 0
O 24.821 17.861 14.391 186 354 355 0 0
H 23.901 17.691 14.741 187 353 0 0 0
H 25.101 18.781 14.651 187 353 0 0 0
O 24.311 12.751 11.651 186 357 358 0 0
H 23.381 12.681 11.281 187 356 0 0 0
H 24.421 13.641 12.091 187 356 0 0 0
O 12.711 17.971 24.531 186 360 361 0 0
H 13.151 18.611 23.891 187 359 0 0 0
H 12.211 18.491 25.231 187 359 0 0 0
O 21.171 13.481 21.521 186 363 364 0 0
H 20.211 13.491 21.251 187 362 0 0 0
H 21.291 14.011 22.361 187 362 0 0 0
O 11.381 22.421 16.781 186 366 367 0 0
H 10.931 23.051 17.421 187 365 0 0 0
H 12.311 22.731 16.611 187 365 0 0 0
O 6.180 15.671 12.841 186 369 370 0 0
H 6.130 16.491 13.411 187 368 0 0 0
H 7.070 15.641 12.391 187 368 0 0 0
O 7.810 21.261 17.491 186 372 373 0 0
H 8.480 20.651 17.921 187 371 0 0 0
H 7.080 21.451 18.141 187 371 0 0 0
O 17.551 24.691 20.931 186 375 376 0 0
H 17.431 24.561 19.941 187 374 0 0 0
H 17.251 23.881 21.421 187 374 0 0 0
O 18.571 8.330 22.391 186 378 379 0 0
H 18.991 7.690 23.031 187 377 0 0 0
H 18.191 7.820 21.611 187 377 0 0 0
O 20.931 17.131 23.451 186 381 382 0 0
H 21.271 17.901 23.991 187 380 0 0 0
H 21.371 17.131 22.551 187 380 0 0 0
O 21.791 21.131 18.011 186 384 385 0 0
H 22.501 21.841 18.071 187 383 0 0 0
H 20.911 21.521 18.291 187 383 0 0 0
O 25.341 16.161 20.161 186 387 388 0 0
H 25.431 16.261 19.171 187 386 0 0 0
H 24.941 15.271 20.371 187 386 0 0 0
O 13.901 24.371 19.401 186 390 391 0 0
H 13.361 24.161 20.211 187 389 0 0 0
H 14.811 23.961 19.491 187 389 0 0 0
O 20.591 9.761 12.641 186 393 394 0 0
H 21.481 9.311 12.501 187 392 0 0 0
H 19.861 9.111 12.451 187 392 0 0 0
O 14.661 24.521 9.921 186 396 397 0 0
H 14.361 23.571 9.991 187 395 0 0 0
H 15.391 24.681 10.581 187 395 0 0 0
O 15.551 15.111 25.651 186 399 400 0 0
H 14.981 14.951 26.461 187 398 0 0 0
H 14.961 15.211 24.851 187 398 0 0 0
O 23.261 17.431 21.851 186 402 403 0 0
H 23.591 17.821 22.711 187 401 0 0 0
H 24.021 17.361 21.201 187 401 0 0 0
O 8.750 16.461 21.991 186 405 406 0 0
H 7.980 16.111 21.451 187 404 0 0 0
H 8.430 17.171 22.611 187 404 0 0 0
O 13.621 11.441 24.071 186 408 409 0 0
H 14.451 11.151 23.591 187 407 0 0 0
H 13.131 12.111 23.511 187 407 0 0 0
O 6.720 16.161 20.161 186 411 412 0 0
H 6.810 16.261 19.171 187 410 0 0 0
H 6.320 15.271 20.371 187 410 0 0 0
O 21.791 24.091 12.801 186 414 415 0 0
H 22.171 23.501 13.521 187 413 0 0 0
H 22.191 23.831 11.921 187 413 0 0 0
O 17.191 5.850 18.311 186 417 418 0 0
H 16.931 6.740 17.951 187 416 0 0 0
H 17.171 5.170 17.581 187 416 0 0 0
O 10.681 13.331 8.490 186 420 421 0 0
H 10.751 12.491 7.940 187 419 0 0 0
H 11.301 14.021 8.130 187 419 0 0 0
O 19.751 7.370 15.971 186 423 424 0 0
H 20.631 7.240 16.421 187 422 0 0 0
H 19.621 8.340 15.751 187 422 0 0 0
O 9.911 22.721 12.421 186 426 427 0 0
H 9.141 23.061 12.961 187 425 0 0 0
H 9.571 22.211 11.631 187 425 0 0 0
O 17.551 6.070 20.931 186 429 430 0 0
H 17.431 5.940 19.941 187 428 0 0 0
H 17.251 5.260 21.421 187 428 0 0 0
O 6.720 20.651 14.891 186 432 433 0 0
H 7.620 20.491 14.491 187 431 0 0 0
H 6.800 20.701 15.881 187 431 0 0 0
O 24.761 19.841 19.791 186 435 436 0 0
H 25.741 19.621 19.861 187 434 0 0 0
H 24.451 19.671 18.861 187 434 0 0 0
O 20.511 23.821 17.221 186 438 439 0 0
H 21.101 23.421 16.521 187 437 0 0 0
H 19.931 24.531 16.811 187 437 0 0 0
O 21.831 9.431 21.041 186 441 442 0 0
H 22.651 9.821 20.621 187 440 0 0 0
H 21.561 8.611 20.551 187 440 0 0 0
O 23.001 22.541 14.991 186 444 445 0 0
H 23.821 21.981 15.081 187 443 0 0 0
H 22.191 21.961 15.031 187 443 0 0 0
O 22.121 8.980 18.041 186 447 448 0 0
H 22.881 9.420 18.521 187 446 0 0 0
H 22.471 8.510 17.221 187 446 0 0 0
O 12.251 21.871 23.111 186 450 451 0 0
H 12.901 21.131 23.001 187 449 0 0 0
H 12.451 22.371 23.951 187 449 0 0 0
O 16.671 17.141 5.720 186 453 454 0 0
H 16.261 16.911 4.840 187 452 0 0 0
H 16.491 16.401 6.370 187 452 0 0 0
O 9.731 8.900 15.721 186 456 457 0 0
H 10.191 8.060 15.431 187 455 0 0 0
H 9.171 9.240 14.971 187 455 0 0 0
O 19.411 12.401 6.530 186 459 460 0 0
H 19.401 11.931 7.410 187 458 0 0 0
H 20.231 12.121 6.020 187 458 0 0 0
O 6.140 19.841 19.791 186 462 463 0 0
H 7.120 19.621 19.861 187 461 0 0 0
H 5.830 19.671 18.861 187 461 0 0 0
O 25.481 11.611 18.031 186 465 466 0 0
H 26.081 12.401 18.171 187 464 0 0 0
H 24.621 11.921 17.621 187 464 0 0 0
O 10.141 20.981 9.711 186 468 469 0 0
H 10.061 20.621 8.781 187 467 0 0 0
H 10.121 20.221 10.361 187 467 0 0 0
O 9.401 16.981 9.040 186 471 472 0 0
H 10.201 16.411 9.250 187 470 0 0 0
H 8.911 16.581 8.270 187 470 0 0 0
O 16.571 6.040 12.061 186 474 475 0 0
H 16.191 5.350 12.681 187 473 0 0 0
H 17.391 5.680 11.621 187 473 0 0 0
O 26.921 12.731 14.221 186 477 478 0 0
H 26.871 13.061 15.171 187 476 0 0 0
H 26.061 12.921 13.761 187 476 0 0 0
O 13.901 5.750 19.401 186 480 481 0 0
H 13.361 5.540 20.211 187 479 0 0 0
H 14.811 5.340 19.491 187 479 0 0 0
O 8.650 22.101 20.571 186 483 484 0 0
H 9.240 22.731 20.081 187 482 0 0 0
H 8.840 21.161 20.281 187 482 0 0 0
O 22.011 23.711 10.061 186 486 487 0 0
H 21.491 22.881 9.891 187 485 0 0 0
H 22.781 23.761 9.421 187 485 0 0 0
O 5.040 19.121 17.401 186 489 490 0 0
H 4.620 18.551 16.701 187 488 0 0 0
H 4.380 19.811 17.721 187 488 0 0 0
O 12.091 23.871 21.371 186 492 493 0 0
H 12.221 23.031 21.911 187 491 0 0 0
H 11.801 24.611 21.971 187 491 0 0 0
O 16.891 9.220 24.741 186 495 496 0 0
H 17.841 8.930 24.821 187 494 0 0 0
H 16.811 9.870 23.991 187 494 0 0 0
O 9.160 9.100 21.531 186 498 499 0 0
H 9.790 9.480 20.851 187 497 0 0 0
H 9.560 8.270 21.921 187 497 0 0 0
O 20.921 14.341 24.001 186 501 502 0 0
H 20.661 15.301 24.001 187 500 0 0 0
H 20.211 13.801 24.451 187 500 0 0 0
O 16.641 12.801 25.191 186 504 505 0 0
H 17.631 12.881 25.331 187 503 0 0 0
H 16.191 13.641 25.501 187 503 0 0 0
O 23.661 15.681 9.100 186 507 508 0 0
H 24.321 16.421 9.190 187 506 0 0 0
H 24.101 14.891 8.680 187 506 0 0 0
O 16.031 23.091 7.370 186 510 511 0 0
H 15.291 23.551 6.870 187 509 0 0 0
H 16.541 23.771 7.900 187 509 0 0 0
O 18.811 22.301 25.091 186 513 514 0 0
H 17.991 22.731 25.481 187 512 0 0 0
H 18.531 21.571 24.461 187 512 0 0 0
O 15.821 25.011 23.341 186 516 517 0 0
H 15.511 25.621 24.071 187 515 0 0 0
H 16.321 25.531 22.651 187 515 0 0 0
O 17.431 24.801 8.560 186 519 520 0 0
H 17.761 25.741 8.560 187 518 0 0 0
H 17.941 24.261 9.220 187 518 0 0 0
O 6.860 11.611 18.031 186 522 523 0 0
H 7.460 12.401 18.171 187 521 0 0 0
[...]
 3044      H       5.0600000000    26.0910000000     6.0400000000
 3045      O      31.3310000000    17.9710000000    24.5310000000
 3046      H      31.7710000000    18.6110000000    23.8910000000
 3047      H      30.8310000000    18.4910000000    25.2310000000
 3048      O       0.7800000000    24.1810000000    13.8610000000
 3049      H       1.7000000000    24.1710000000    13.4510000000
 3050      H       0.7200000000    24.9210000000    14.5310000000
 3051      O      29.3810000000    25.4510000000    14.6410000000
 3052      H      28.5810000000    24.8410000000    14.6710000000
 3053      H      30.1910000000    24.9210000000    14.4010000000
 3054      O      25.6710000000    10.5010000000     3.6800000000
 3055      H      25.5310000000    10.5710000000     4.6700000000
 3056      H      26.5110000000     9.9910000000     3.5000000000
 3057      O       8.1500000000    24.3410000000     3.2500000000
 3058      H       8.2200000000    23.4510000000     2.7900000000
 3059      H       7.2100000000    24.6810000000     3.1700000000
 3060      O      19.4110000000    31.0210000000    25.1510000000
 3061      H      19.4010000000    30.5510000000    26.0310000000
 3062      H      20.2310000000    30.7410000000    24.6410000000
 3063      O       9.9110000000    22.7210000000    31.0410000000
 3064      H       9.1410000000    23.0610000000    31.5810000000
 3065      H       9.5710000000    22.2110000000    30.2510000000
 3066      O       5.9400000000    26.0710000000    25.1410000000
 3067      H       6.4400000000    26.9210000000    24.9510000000
 3068      H       5.0600000000    26.0910000000    24.6610000000
 3069      O       9.0300000000    19.4810000000     1.3300000000
 3070      H       9.5400000000    19.4910000000     0.4700000000
 3071      H       9.5900000000    19.0610000000     2.0400000000
 3072      O       2.3000000000    14.3410000000     5.3800000000
 3073      H       2.0400000000    15.3010000000     5.3800000000
 3074      H       1.5900000000    13.8010000000     5.8300000000
 3075      O       2.6300000000    21.8810000000    25.8210000000
 3076      H       1.8400000000    22.3910000000    25.4810000000
 3077      H       2.5400000000    21.7310000000    26.8010000000
 3078      O       1.1300000000     7.3700000000    15.9710000000
 3079      H       2.0100000000     7.2400000000    16.4210000000
 3080      H       1.0000000000     8.3400000000    15.7510000000
 3081      O      16.6410000000    31.4210000000    25.1910000000
 3082      H      17.6310000000    31.5010000000    25.3310000000
 3083      H      16.1910000000    32.2610000000    25.5010000000
 3084      O      24.2810000000     5.3700000000    27.2710000000
 3085      H      24.4010000000     6.0300000000    26.5310000000
 3086      H      24.7410000000     5.7100000000    28.1010000000
 3087      O      22.0110000000     5.0900000000    28.6810000000
 3088      H      21.4910000000     4.2600000000    28.5110000000
 3089      H      22.7810000000     5.1400000000    28.0410000000
 3090      O       6.7200000000     2.0300000000    14.8910000000
 3091      H       7.6200000000     1.8700000000    14.4910000000
 3092      H       6.8000000000     2.0800000000    15.8810000000
 3093      O      31.3610000000    22.4810000000    12.6210000000
 3094      H      31.5710000000    23.2210000000    13.2610000000
 3095      H      30.4710000000    22.6510000000    12.1910000000
 3096      O      22.9010000000     4.2400000000     5.2000000000
 3097      H      23.2010000000     3.5200000000     4.5800000000
 3098      H      22.5110000000     3.8400000000     6.0300000000
 3099      O      23.3510000000    23.6210000000     1.9100000000
 3100      H      23.9610000000    24.4210000000     1.9500000000
 3101      H      22.4010000000    23.9310000000     1.9800000000
 3102      O      16.4110000000    29.7010000000     4.3200000000
 3103      H      17.2710000000    29.7210000000     3.8000000000
 3104      H      16.5510000000    30.1710000000     5.2000000000
 3105      O       9.1500000000     0.8900000000    14.0210000000
 3106      H       9.4000000000     0.6900000000    13.0710000000
 3107      H       9.8700000000     1.4500000000    14.4410000000
 3108      O      24.3510000000     8.7000000000    28.9110000000
 3109      H      24.7910000000     9.5900000000    28.8210000000
 3110      H      23.7210000000     8.7000000000    29.6810000000
 3111      O       8.3000000000    31.3510000000    14.2210000000
 3112      H       8.2500000000    31.6810000000    15.1710000000
 3113      H       7.4400000000    31.5410000000    13.7610000000
 3114      O      10.0110000000     0.3400000000    11.5410000000
 3115      H       9.3810000000    -0.3800000000    11.2310000000
 3116      H      10.9410000000    -0.0200000000    11.5410000000
 3117      O      16.5710000000     6.0400000000    30.6810000000
 3118      H      16.1910000000     5.3500000000    31.3010000000
 3119      H      17.3910000000     5.6800000000    30.2410000000
 3120      O      23.6610000000     0.5000000000    17.4010000000
 3121      H      23.2410000000    -0.0700000000    16.7010000000
 3122      H      23.0010000000     1.1900000000    17.7210000000
 3123      O       8.5900000000    13.7410000000     0.1600000000
 3124      H       8.1300000000    13.8910000000     1.0400000000
 3125      H       9.0300000000    14.5910000000    -0.1400000000
 3126      O      26.3210000000    13.3010000000     3.0100000000
 3127      H      25.8610000000    12.4310000000     3.1800000000
 3128      H      27.2310000000    13.2710000000     3.4200000000
 3129      O      10.3910000000    29.6010000000    25.5810000000
 3130      H       9.6910000000    29.1310000000    26.1210000000
 3131      H      10.9810000000    28.9210000000    25.1510000000
 3132      O      28.8510000000    26.2810000000     9.6610000000
 3133      H      29.0010000000    26.4910000000    10.6210000000
 3134      H      28.5510000000    25.3310000000     9.5710000000
 3135      O      24.7610000000     1.2200000000    19.7910000000
 3136      H      25.7410000000     1.0000000000    19.8610000000
 3137      H      24.4510000000     1.0500000000    18.8610000000
 3138      O       3.1700000000     5.4700000000    12.8010000000
 3139      H       3.5500000000     4.8800000000    13.5210000000
 3140      H       3.5700000000     5.2100000000    11.9210000000
 3141      O      28.5310000000     4.1000000000    12.4210000000
 3142      H      27.7610000000     4.4400000000    12.9610000000
 3143      H      28.1910000000     3.5900000000    11.6310000000
 3144      O      13.9010000000    24.3710000000     0.7800000000
 3145      H      13.3610000000    24.1610000000     1.5900000000
 3146      H      14.8110000000    23.9610000000     0.8700000000
 3147      O      28.3510000000    27.5210000000    15.7210000000
 3148      H      28.8110000000    26.6810000000    15.4310000000
 3149      H      27.7910000000    27.8610000000    14.9710000000
 3150      O       8.6500000000    22.1010000000     1.9500000000
 3151      H       9.2400000000    22.7310000000     1.4600000000
 3152      H       8.8400000000    21.1610000000     1.6600000000
 3153      O      27.8410000000     5.0300000000     8.9900000000
 3154      H      27.5910000000     4.9400000000     8.0300000000
 3155      H      28.3210000000     4.2100000000     9.3000000000
 3156      O      27.9710000000    20.9810000000     4.8000000000
 3157      H      27.4910000000    21.3910000000     4.0200000000
 3158      H      28.9610000000    20.9610000000     4.6100000000
 3159      O      30.7110000000    23.8710000000    21.3710000000
 3160      H      30.8410000000    23.0310000000    21.9110000000
 3161      H      30.4210000000    24.6110000000    21.9710000000
 3162      O       2.3000000000     6.2800000000    19.7510000000
 3163      H       1.3700000000     6.2600000000    20.1210000000
 3164      H       2.3100000000     5.8900000000    18.8310000000
 3165      O       4.3800000000     3.9200000000    14.9910000000
 3166      H       5.2000000000     3.3600000000    15.0810000000
 3167      H       3.5700000000     3.3400000000    15.0310000000
 3168      O      20.5910000000     9.7610000000    31.2610000000
 3169      H      21.4810000000     9.3110000000    31.1210000000
 3170      H      19.8610000000     9.1110000000    31.0710000000
 3171      O      24.3110000000    12.7510000000    30.2710000000
 3172      H      23.3810000000    12.6810000000    29.9010000000
 3173      H      24.4210000000    13.6410000000    30.7110000000
 3174      O      29.3010000000    13.3310000000    27.1110000000
 3175      H      29.3710000000    12.4910000000    26.5610000000
 3176      H      29.9210000000    14.0210000000    26.7510000000
 3177      O      24.2310000000     2.2200000000    11.4710000000
 3178      H      24.6110000000     1.3800000000    11.8410000000
 3179      H      23.3510000000     2.4100000000    11.9110000000
 3180      O       3.6700000000    11.0010000000     5.0100000000
 3181      H       3.6000000000    11.8310000000     4.4500000000
 3182      H       3.7100000000    10.2010000000     4.4100000000
 3183      O      26.4310000000     2.6400000000    17.4910000000
 3184      H      27.1010000000     2.0300000000    17.9210000000
 3185      H      25.7010000000     2.8300000000    18.1410000000
 3186      O       5.6600000000    23.9910000000    27.2710000000
 3187      H       5.7800000000    24.6510000000    26.5310000000
 3188      H       6.1200000000    24.3310000000    28.1010000000
 3189      O       1.1300000000    25.9910000000    15.9710000000
 3190      H       2.0100000000    25.8610000000    16.4210000000
 3191      H       1.0000000000    26.9610000000    15.7510000000
 3192      O      25.3410000000     2.0300000000    14.8910000000
 3193      H      26.2410000000     1.8700000000    14.4910000000
 3194      H      25.4210000000     2.0800000000    15.8810000000
 3195      O       0.3900000000    10.7710000000    21.6210000000
 3196      H       1.3800000000    10.6610000000    21.5310000000
 3197      H      -0.0100000000     9.9110000000    21.9410000000
 3198      O      25.6710000000    29.1210000000    22.3010000000
 3199      H      25.5310000000    29.1910000000    23.2910000000
 3200      H      26.5110000000    28.6110000000    22.1210000000
 3201      O       2.3100000000    17.1310000000     4.8300000000
 3202      H       2.6500000000    17.9010000000     5.3700000000
 3203      H       2.7500000000    17.1310000000     3.9300000000
 3204      O       6.7200000000    16.1610000000     1.5400000000
 3205      H       6.8100000000    16.2610000000     0.5500000000
 3206      H       6.3200000000    15.2710000000     1.7500000000
 3207      O      27.3710000000    16.4610000000     3.3700000000
 3208      H      26.6010000000    16.1110000000     2.8300000000
 3209      H      27.0510000000    17.1710000000     3.9900000000
 3210      O      29.0310000000     7.0100000000    22.9110000000
 3211      H      29.2910000000     6.9700000000    23.8710000000
 3212      H      28.1810000000     6.5000000000    22.7710000000
 3213      O       4.6400000000    17.4310000000     3.2300000000
 3214      H       4.9700000000    17.8210000000     4.0900000000
 3215      H       5.4000000000    17.3610000000     2.5800000000
 3216      O      27.2710000000     3.4800000000    20.5710000000
 3217      H      27.8610000000     4.1100000000    20.0810000000
 3218      H      27.4610000000     2.5400000000    20.2810000000
 3219      O       7.0500000000    29.1210000000    22.3010000000
 3220      H       6.9100000000    29.1910000000    23.2910000000
 3221      H       7.8900000000    28.6110000000    22.1210000000
 3222      O      27.2110000000     9.5610000000    27.2310000000
 3223      H      27.7510000000     8.8710000000    27.7110000000
 3224      H      26.8910000000    10.2510000000    27.8910000000
 3225      O       6.8600000000    30.2310000000    18.0310000000
 3226      H       7.4600000000    31.0210000000    18.1710000000
 3227      H       6.0000000000    30.5410000000    17.6210000000
 3228      O      25.3410000000    16.1610000000     1.5400000000
 3229      H      25.4310000000    16.2610000000     0.5500000000
 3230      H      24.9410000000    15.2710000000     1.7500000000
 3231      O      25.4810000000    30.2310000000    18.0310000000
 3232      H      26.0810000000    31.0210000000    18.1710000000
 3233      H      24.6210000000    30.5410000000    17.6210000000
 3234      O       4.2800000000    22.8610000000     5.2000000000
 3235      H       4.5800000000    22.1410000000     4.5800000000
 3236      H       3.8900000000    22.4610000000     6.0300000000
 3237      O      26.3010000000    11.4410000000    28.8510000000
 3238      H      25.5210000000    11.6110000000    29.4510000000
 3239      H      26.6410000000    12.3110000000    28.4910000000
 3240      O      29.0310000000    25.6310000000    22.9110000000
 3241      H      29.2910000000    25.5910000000    23.8710000000
 3242      H      28.1810000000    25.1210000000    22.7710000000
 3243      O      24.1210000000     1.9600000000     8.8500000000
 3244      H      24.0710000000     1.9100000000     9.8500000000
 3245      H      24.1410000000     2.9200000000     8.5600000000
 3246      O      27.7810000000    27.7210000000    21.5310000000
 3247      H      28.4110000000    28.1010000000    20.8510000000
 3248      H      28.1810000000    26.8910000000    21.9210000000
 3249      O      24.7610000000    19.8410000000     1.1700000000
 3250      H      25.7410000000    19.6210000000     1.2400000000
 3251      H      24.4510000000    19.6710000000     0.2400000000
 3252      O      31.4310000000    22.0710000000     9.4410000000
 3253      H      30.5710000000    21.5710000000     9.3110000000
 3254      H      32.0510000000    21.5310000000    10.0010000000
 3255      O       5.2700000000    21.1810000000     3.2800000000
 3256      H       5.5400000000    20.5910000000     2.5300000000
 3257      H       5.2700000000    22.1310000000     2.9700000000
 3258      O       5.6100000000     2.2200000000    11.4710000000
 3259      H       5.9900000000     1.3800000000    11.8410000000
 3260      H       4.7300000000     2.4100000000    11.9110000000
 3261      O       3.3900000000     5.0900000000    10.0610000000
 3262      H       2.8700000000     4.2600000000     9.8910000000
 3263      H       4.1600000000     5.1400000000     9.4210000000
 3264      O       1.8900000000     5.2000000000    17.2210000000
 3265      H       2.4800000000     4.8000000000    16.5210000000
 3266      H       1.3100000000     5.9100000000    16.8110000000
 3267      O       3.1900000000    26.7210000000     9.4910000000
 3268      H       4.1200000000    27.0810000000     9.5410000000
 3269      H       3.1300000000    25.8710000000    10.0110000000
 3270      O       5.6900000000    12.7510000000    30.2710000000
 3271      H       4.7600000000    12.6810000000    29.9010000000
 3272      H       5.8000000000    13.6410000000    30.7110000000
 ----------------------------------------------------------------
 Nuclear Repulsion Energy =     0.0000000000 hartrees
 There are    12815 alpha and    12815 beta electrons

 Total QAlloc Memory Limit   8192 MB
 Mega-Array Size       501 MB
 MEM_STATIC part       512 MB
   **** Step 1: MM force contributions **** 
 OPLSAA force field loaded.
Reading user-defined FF parameters...
 Reading user defined atom types.
 Found 1 user defined AtomTypes
finished.
 MM subtractive:  don't build interatomic_distances
Determining angles, torsions, etc. from user defined input

 Q-Chem fatal error occurred in module /home/akohn/tests/qchem/libmdc/newfileman.C, line 140:

 Error positioning pointer in FILE 844/0 (4)

 
User input: 2 of 2 
 
                  Welcome to Q-Chem
     A Quantum Leap Into The Future Of Chemistry


 Q-Chem 4.4, Q-Chem, Inc., Pleasanton, CA (2016)

 Y. Shao,  Z. Gan,  E. Epifanovsky,  A. T. B. Gilbert,  M. Wormit,  
 J. Kussmann,  A. W. Lange,  A. Behn,  J. Deng,  X. Feng,  D. Ghosh,  
 M. Goldey,  P. R. Horn,  L. D. Jacobson,  I. Kaliman,  F.Rob,  
 R. Z. Khaliullin,  T. Kus,  A. Landau,  J. Liu,  E. I. Proynov,  Y. M. Rhee,  
 R. M. Richard,  M. A. Rohrdanz,  R. P. Steele,  E. J. Sundstrom,  
 H. L. Woodcock III,  P. M. Zimmerman,  D. Zuev,  B. Albrecht,  E. Alguire,  
 B. Austin,  S. A. Baeppler,  G. J. O. Beran,  Y. A. Bernard,  E. Berquist,  
 K. Brandhorst,  K. B. Bravaya,  S. T. Brown,  D. Casanova,  C.-M. Chang,  
 Y. Chen,  S. H. Chien,  K. D. Closser,  M. P. Coons,  D. L. Crittenden,  
 S. Dasgupta,  M. Diedenhofen,  R. A. DiStasio Jr.,  H. Do,  A. D. Dutoi,  
 R. G. Edgar,  P.-T. Fang,  S. Fatehi,  Q. Feng,  L. Fusti-Molnar,  
 A. Ghysels,  A. Golubeva-Zadorozhnaya,  J. Gomes,  A. Gunina,  
 M. W. D. Hanson-Heine,  P. H. P. Harbach,  A. W. Hauser,  E. G. Hohenstein,  
 Z. C. Holden,  K. Hui,  T.-C. Jagau,  H. Ji,  B. Kaduk,  K. Khistyaev,  
 Jaehoon Kim,  Jihan Kim,  R. A. King,  P. Klunzinger,  D. Kosenkov,  
 T. Kowalczyk,  C. M. Krauter,  A. Kunitsa,  K. U. Lao,  A. Laurent,  
 K. V. Lawler,  D. Lefrancois,  S. Lehtola,  S. V. Levchenko,  C. Y. Lin,  
 Y.-S. Lin,  F. Liu,  E. Livshits,  R. C. Lochan,  A. Luenser,  P. Manohar,  
 S. F. Manzer,  S.-P. Mao,  Y. Mao,  N. Mardirossian,  A. V. Marenich,  
 L. A. Martinez-Martinez,  S. A. Maurer,  N. J. Mayhall,  J.-M. Mewes,  
 A. F. Morrison,  K. Nanda,  C. M. Oana,  R. Olivares-Amaya,  D. P. O'Neill,  
 J. A. Parkhill,  T. M. Perrine,  R. Peverati,  P. A. Pieniazek,  F. Plasser,  
 A. Prociuk,  D. R. Rehn,  E. Rosta,  N. J. Russ,  N. Sergueev,  
 S. M. Sharada,  S. Sharma,  D. W. Small,  A. Sodt,  T. Stauch,  T. Stein,  
 D. Stuck,  Y.-C. Su,  A. J. W. Thom,  T. Tsuchimochi,  L. Vogt,  O. Vydrov,  
 T. Wang,  M. A. Watson,  J. Wenzel,  A. White,  C. F. Williams,  
 V. Vanovschi,  S. Yeganeh,  S. R. Yost,  Z.-Q. You,  I. Y. Zhang,  X. Zhang,  
 Y. Zhao,  B. R. Brooks,  G. K. L. Chan,  D. M. Chipman,  C. J. Cramer,  
 W. A. Goddard III,  M. S. Gordon,  W. J. Hehre,  A. Klamt,  
 H. F. Schaefer III,  M. W. Schmidt,  C. D. Sherrill,  D. G. Truhlar,  
 A. Warshel,  X. Xu,  A. Aspuru-Guzik,  R. Baer,  A. T. Bell,  N. A. Besley,  
 J.-D. Chai,  A. Dreuw,  B. D. Dunietz,  T. R. Furlani,  S. R. Gwaltney,  
 C.-P. Hsu,  Y. Jung,  J. Kong,  D. S. Lambrecht,  W. Liang,  C. Ochsenfeld,  
 V. A. Rassolov,  L. V. Slipchenko,  J. E. Subotnik,  T. Van Voorhis,  
 J. M. Herbert,  A. I. Krylov,  P. M. W. Gill,  M. Head-Gordon

 Contributors to earlier versions of Q-Chem not listed above: 
 R. D. Adamson,  J. Baker,  E. F. C. Byrd,  A. K. Chakraborty,  C.-L. Cheng,  
 H. Dachsel,  R. J. Doerksen,  G. Hawkins,  A. Heyden,  S. Hirata,  
 G. Kedziora,  F. J. Keil,  C. Kelley,  P. P. Korambath,  W. Kurlancheek,  
 A. M. Lee,  M. S. Lee,  D. Liotard,  I. Lotan,  P. E. Maslen,  N. Nair,  
 D. Neuhauser,  R. Olson,  B. Peters,  J. Ritchie,  N. E. Schultz,  
 N. Shenvi,  A. C. Simmonett,  K. S. Thanthiriwatte,  Q. Wu,  W. Zhang

 Please cite Q-Chem as follows:
 Y. Shao et al., Mol. Phys. 113, 184-215 (2015)
 DOI: 10.1080/00268976.2014.952696

 Q-Chem 4.4.0 for Intel X86 EM64T Linux

 Parts of Q-Chem use Armadillo 5.200.1 (Boston Tea Smuggler).
 http://arma.sourceforge.net/

 Q-Chem begins on Fri Jan  6 12:01:38 2017  

Host: 
0

     Scratch files written to /scratch/nricke/qchem27791//
Processing $rem in /opt/qchem.20160721/config/preferences.
xc_grid     000075000302
max_scf_cycles  200
geom_opt_max_cycles 200
symmetry    false
sym_ignore  true
Applying user defined connections for MM calculations
The previous job contains 0 fragments, simply inherited here
Symmetry disabled for AIMD jobs.

Checking the input file for inconsistencies... 	...done.

 Q-Chem fatal error occurred in module /home/akohn/tests/qchem/qparser/VelocityInput.C, line 41:

 Could not find $velocity section in VelocityInput::read

