3272
Energy:    100
Ar 15.3382357057 -3.7662 16.5999855651
Ar 16.1249843554 -3.7266 14.4753173766
Ar 17.1942021162 -3.687 17.5713640966
Ar 13.6880858668 -3.6474 15.5946469158
Ar 18.2273438844 -3.6078 14.5794210776
Ar 15.2306898044 -3.5682 18.8303160302
Ar 14.5242735385 -3.5286 13.1779074507
Ar 19.2002625198 -3.489 17.174017525
Ar 12.6306434102 -3.4494 17.3891063512
Ar 17.6191421226 -3.4098 12.5227548536
Ar 17.1990392296 -3.3702 19.853419424
Ar 12.3379587146 -3.3306 13.8849879058
Ar 20.2880376586 -3.291 15.0573083249
Ar 13.3626923095 -3.2514 19.7404972281
Ar 15.382659464 -3.2118 11.3074780699
Ar 19.7315117004 -3.1722 19.1545072211
Ar 10.9507356161 -3.1326 16.2104307564
Ar 19.6716305028 -3.093 12.3392810507
Ar 15.7445165527 -3.0534 21.3324317977
Ar 12.482696042 -3.0138 11.797879343
Ar 21.552326712 -2.9742 16.7502686434
Ar 11.2762025031 -2.9346 19.282433295
Ar 17.2799690484 -2.895 10.2724033482
Ar 18.9734945255 -2.8554 21.2068506266
Ar 10.158634429 -2.8158 14.1413163068
Ar 21.6578554464 -2.7762 13.3837690496
Ar 13.5354876397 -2.7366 21.8693212532
Ar 13.7991855729 -2.697 9.90819753217
Ar 21.8237752369 -2.6574 19.0675431943
Ar 9.51186593265 -2.6178 17.7098789469
Ar 19.6738667026 -2.5782 10.2742960961
Ar 17.1625277764 -2.5386 22.818784866
Ar 10.4392245308 -2.499 11.702393025
Ar 23.0922231253 -2.4594 15.4136781797
Ar 11.0830357059 -2.4198 21.3073655904
Ar 16.0267459588 -2.3802 8.67450871127
Ar 20.9805632351 -2.3406 21.5022652266
Ar 8.49975572486 -2.301 15.3077131644
Ar 22.0600174293 -2.2614 11.3958321478
Ar 14.6104389499 -2.2218 23.5907844578
Ar 11.8333214337 -2.1822 9.39503288193
Ar 23.6080924925 -2.1426 18.0895292573
Ar 8.88384239567 -2.103 19.6492759406
Ar 18.7989093456 -2.0634 8.42814666455
Ar 19.0697967648 -2.0238 23.5649876135
Ar 8.53352307107 -1.9842 12.467762513
Ar 23.959268314 -1.9446 13.5452977151
Ar 11.7320675672 -1.905 23.2691131499
Ar 14.20495971 -1.8654 7.68472185612
Ar 22.9936607142 -1.8258 20.9763621582
Ar 7.38618535747 -1.7862 17.0744014769
Ar 21.6639120276 -1.7466 9.337230179
Ar 16.3128705393 -1.707 24.8282425956
Ar 9.73616159925 -1.6674 9.65494630396
Ar 24.9685378847 -1.6278 16.4610275476
Ar 9.00158599744 -1.5882 21.77700191
Ar 17.2543855449 -1.5486 6.94667348988
Ar 21.219116685 -1.509 23.5948431386
Ar 6.93408167513 -1.4694 13.9180242572
Ar 24.1414814057 -1.4298 11.3842630635
Ar 13.0776850307 -1.3902 24.9823350856
Ar 12.0429144677 -1.3506 7.34617609526
Ar 24.8153324923 -1.311 19.7457322373
Ar 6.88821747119 -1.2714 19.2260187768
Ar 20.5584384263 -1.2318 7.41358404699
Ar 18.4419854541 -1.1922 25.4877446657
Ar 7.71815012746 -1.1526 10.6254026163
Ar 25.7906280493 -1.113 14.3670195427
Ar 9.82760218503 -1.0734 23.8806603312
Ar 15.2085066222 -1.0338 5.96206876151
Ar 23.3986310791 -0.9942 22.922125328
Ar 5.78822075459 -0.9546 15.9024524765
Ar 23.630233994 -0.915 9.13970716275
Ar 14.9871645011 -0.8754 26.286963876
Ar 9.74509404272 -0.8358 7.68858320948
Ar 26.2749783978 -0.7962 17.924749145
Ar 7.055325698 -0.7566 21.5644365532
Ar 18.8394193451 -0.717 5.80395380309
Ar 20.8075262776 -0.6774 25.5013810671
Ar 5.96485685696 -0.6378 12.2292012464
Ar 25.9893489796 -0.5982 11.9885440276
Ar 11.303266771 -0.5586 25.7700134323
Ar 12.8318965202 -0.519 5.57511282289
Ar 25.4151787391 -0.4794 21.5870346046
Ar 5.211142123 -0.4398 18.2618959515
Ar 22.4475541696 -0.4002 7.00605943688
Ar 17.3137570443 -0.3606 27.0547276562
Ar 7.50562428009 -0.321 8.7077437739
Ar 27.232613707 -0.2814 15.6469505647
Ar 7.90070891612 -0.2418 23.8973249799
Ar 16.6264868663 -0.2022 4.65867535496
Ar 23.2203749236 -0.1626 24.8390668581
Ar 4.63560451138 -0.123 14.3612001045
Ar 25.5183194421 -0.0834 9.51016686231
Ar 13.3384057511 -0.0438 27.2781164818
Ar 10.3033030644 -0.0042 5.84781995786
Ar 27.095555481 0.0354 19.6644021637
Ar 5.27976032231 0.075 20.8246158428
Ar 20.652656557 0.1146 5.16142631663
Ar 19.8938481408 0.1542 27.1946100776
Ar 5.50616547196 0.1938 10.3602345955
Ar 27.5839804288 0.2334 13.0667881817
Ar 9.39681317678 0.273 26.040805663
Ar 14.0639696768 0.3126 4.09433053141
Ar 25.4957539265 0.3522 23.5125042145
Ar 3.85832754891 0.3918 16.8880735604
Ar 24.373500822 0.4314 7.11626664764
Ar 15.8114946172 0.471 28.2667025572
Ar 7.80543373035 0.5106 6.7997669403
Ar 28.2922263672 0.5502 17.2632372585
Ar 6.02889802454 0.5898 23.4108176243
Ar 18.341406872 0.6294 3.76150693902
Ar 22.5517627099 0.669 26.656922227
Ar 3.9094429345 0.7086 12.5638740987
Ar 27.264987968 0.7482 10.3546514489
Ar 11.4755922896 0.7878 27.8262939226
Ar 11.3158507611 0.8274 4.18886493627
Ar 27.4604092073 0.867 21.5752435293
Ar 3.72420091227 0.9066 19.6533155686
Ar 22.5936793534 0.9462 4.9835596151
Ar 18.5745193809 0.9858 28.6320685813
Ar 5.51724844363 1.0254 8.40710708598
Ar 28.8897330984 1.065 14.5221069445
Ar 7.44972993996 1.1046 25.8405210983
Ar 15.6420353556 1.1442 2.93267440007
Ar 25.1077222675 1.1838 25.4354799017
Ar 2.85184119302 1.2234 15.2015891774
Ar 26.2545480688 1.263 7.68890310174
Ar 14.0318767007 1.3026 29.1083551737
Ar 8.55787762167 1.3422 4.97807254792
Ar 28.9608701911 1.3818 19.1198823562
Ar 4.28343418393 1.4214 22.4849721504
Ar 20.2582938684 1.461 3.27249120977
Ar 21.4604700374 1.5006 28.3099696925
Ar 3.6050653311 1.5402 10.6040618809
Ar 28.8102639955 1.5798 11.6019612532
Ar 9.49055133362 1.6194 27.9426724256
Ar 12.7083570431 1.659 2.76575316725
Ar 27.3871024451 1.6986 23.567591312
Ar 2.43656097718 1.7382 18.1277274371
Ar 24.5753425069 1.7778 5.24655146055
Ar 16.9291506965 1.8174 29.7721278756
Ar 5.96824158962 1.857 6.45403347057
Ar 29.8714048353 1.8966 16.272885304
Ar 5.54290921746 1.9362 25.2048770588
Ar 17.4829088073 1.9758 2.11880336267
Ar 24.2924133272 2.0154 27.2787785653
Ar 2.21371031701 2.055 13.2867453175
Ar 28.0175986966 2.0946 8.67730018144
Ar 12.0598570112 2.1342 29.5643473913
Ar 9.71125350743 2.1738 3.31130861028
Ar 29.2299203448 2.2134 21.1317590338
Ar 2.72817019249 2.253 21.1761882935
Ar 22.2923342651 2.2926 3.1935508933
Ar 20.0072272155 2.3322 29.7394767593
Ar 3.7177403542 2.3718 8.56577267515
Ar 30.1008360418 2.4114 13.187430741
Ar 7.46599541073 2.451 27.6385513686
Ar 14.4126432225 2.4906 1.62610203421
Ar 26.8933778185 2.5302 25.5605195225
Ar 1.4585213398 2.5698 16.319096753
Ar 26.5189901756 2.6094 5.9263798353
Ar 15.031585575 2.649 30.579252792
Ar 6.82904633885 2.6886 4.57692582296
Ar 30.4997793959 2.7282 18.24316907
Ar 3.7490594203 2.7678 24.1698073192
Ar 19.509028565 2.8074 1.67547943651
Ar 23.0913170907 2.847 28.9733379499
Ar 1.96014720218 2.8866 11.2221946686
Ar 29.5976581162 2.9262 10.0347270828
Ar 9.97465427029 2.9658 29.6250709027
Ar 11.2139399506 3.0054 1.86000497369
Ar 29.0963843341 3.045 23.2196132104
Ar 1.41880179939 3.0846 19.5405950944
Ar 24.3647710291 3.1242 3.52109399477
Ar 18.2522572896 3.1638 30.8949203124
Ar 4.23736640194 3.2034 6.52673615763
Ar 31.0916584714 3.243 15.0471844528
Ar 5.47810249756 3.2826 26.9304234976
Ar 16.361648152 3.3222 0.809211160967
Ar 26.0019575248 3.3618 27.4799163874
Ar 0.823405746013 3.4014 14.2971815972
Ar 28.3530776156 3.441 6.99429729471
Ar 12.9537715812 3.4806 31.0262846077
Ar 8.06513562992 3.5202 2.84427848193
Ar 30.7540097632 3.5598 20.3593438115
Ar 2.13316222694 3.5994 22.7753329385
Ar 21.6456474266 3.639 1.61713512468
Ar 21.5496247894 3.6786 30.4581266351
Ar 2.09911197106 3.7182 9.08327545343
Ar 30.9380547346 3.7578 11.7111823248
Ar 7.85165223591 3.7974 29.2890501773
Ar 13.0115188186 3.837 0.676095038481
Ar 28.5652374244 3.8766 25.3085608275
Ar 0.402180002081 3.9162 17.6366027751
Ar 26.4017607692 3.9558 4.2437742424
Ar 16.257510027 3.9954 31.7348391095
Ar 5.14635159799 4.035 4.55922236357
Ar 31.7469278646 4.0746 17.1162103775
Ar 3.59704883872 4.1142 25.8419560249
Ar 18.4877961915 4.1538 0.344999497403
Ar 24.7423700821 4.1934 29.2582037298
Ar 0.555065265954 4.233 12.1316049444
Ar 30.0131090373 4.2726 8.41517034684
Ar 10.7668488446 4.3122 31.0955788157
Ar 9.63606783321 4.3518 1.31704415003
Ar 30.6227508057 4.3914 22.5492923869
Ar 0.752193669841 4.431 21.0668684713
Ar 23.8202173227 4.4706 1.94877003125
Ar 19.7173527506 4.5102 31.6805484257
Ar 2.62925963704 4.5498 6.94241872751
Ar 31.9909418695 4.5894 13.6524521685
Ar 5.76261926753 4.629 28.563926707
Ar 15.0460135322 4.6686 -0.19765738575
Ar 27.6503226863 4.7082 27.3280355314
Ar -0.28430875401 4.7478 15.5254892219
Ar 28.3344679963 4.7874 5.34168807852
Ar 14.0870795928 4.827 32.2274774378
Ar 6.41891811779 4.8666 2.72982151717
Ar 32.0407295444 4.9062 19.3281029318
Ar 1.88668335973 4.9458 24.4045710869
Ar 20.7228912073 4.9854 0.253375055505
Ar 23.1514099871 5.025 30.8347478175
Ar 0.667281557664 5.0646 9.89182056401
Ar 31.442114049 5.1042 10.147144015
Ar 8.54098787086 5.1438 30.7795529515
Ar 11.4952769142 5.1834 0.0481108949773
Ar 30.1046446973 5.223 24.7426723058
Ar -0.345427134789 5.2626 19.0953067274
Ar 25.9627682139 5.3022 2.66553947078
Ar 17.6493043747 5.3418 32.5970044821
Ar 3.53961250647 5.3814 4.86868213308
Ar 32.7178543067 5.421 15.8002674982
Ar 3.7751692957 5.4606 27.4666948779
Ar 17.256159386 5.5002 -0.728193701446
Ar 26.3744890019 5.5398 29.2123857062
Ar -0.613243054799 5.5794 13.2710229922
Ar 30.0997053171 5.619 6.78633891279
Ar 11.8067288598 5.6586 32.3512374704
Ar 8.02117140167 5.6982 1.09877543371
Ar 31.9574301188 5.7378 21.6156283115
Ar 0.403845191522 5.7774 22.6572704991
Ar 22.9987616298 5.817 0.543912539378
Ar 21.2728569204 5.8566 32.1565415507
Ar 1.16352365306 5.8962 7.64639898387
Ar 32.5913158754 5.9358 12.1420262183
Ar 6.34461788467 5.9754 30.0808430677
Ar 13.590557048 6.015 -0.918339022442
Ar 29.2083844835 6.0546 26.871733164
Ar -1.12043974235 6.0942 16.916438573
Ar 28.0067591114 6.1338 3.75278855855
Ar 15.4044002018 6.1734 33.1734440953
Ar 4.80969526127 6.213 2.92687769313
Ar 33.0901974247 6.2526 18.0930565446
Ar 1.95188090635 6.2922 26.0234639566
Ar 19.578231134 6.3318 -0.892578300494
Ar 24.769249549 6.3714 30.901751679
Ar -0.567504288893 6.411 10.9385696692
Ar 31.6407946872 6.4506 8.54108137772
Ar 9.48293925929 6.4902 32.0949294709
Ar 9.91164510217 6.5298 -0.280855842456
Ar 31.4918336992 6.5694 23.9117209476
Ar -0.802430273319 6.609 20.6459933953
Ar 25.2482925047 6.6486 1.21579635191
Ar 19.1567404193 6.6882 33.1789479814
Ar 2.0369942229 6.7278 5.46197095201
Ar 33.4208140694 6.7674 14.3461105267
Ar 4.24335718753 6.807 29.0121513961
Ar 15.8649662446 6.8466 -1.5474413795
Ar 27.9524540813 6.8862 28.8723878505
Ar -1.54327525661 6.9258 14.589975926
Ar 29.8901392758 6.9654 5.1864202452
Ar 13.0446358549 7.005 33.3858102073
Ar 6.41001019862 7.0446 1.17653211309
Ar 33.0895982957 7.0842 20.4670429206
Ar 0.349290442721 7.1238 24.2688776503
Ar 21.9471872864 7.1634 -0.678249178273
Ar 22.8740993067 7.203 32.3430288212
Ar -0.140421750303 7.2426 8.59391155872
Ar 32.9084761282 7.2822 10.5619016359
Ar 7.18170516217 7.3218 31.4578074399
Ar 12.042173921 7.3614 -1.3640382885
Ar 30.649105256 7.401 26.1507034297
Ar -1.69168168356 7.4406 18.4226571252
Ar 27.406648493 7.4802 2.25801123969
Ar 16.8583016863 7.5198 33.8663878749
Ar 3.27093479991 7.5594 3.40201269265
Ar 33.9001813016 7.599 16.7012854268
Ar 2.29881799748 7.6386 27.5958271011
Ar 18.2579979201 7.6782 -1.81414882039
Ar 26.364596681 7.7178 30.6853769093
Ar -1.59445090749 7.7574 12.1783273126
Ar 31.5564707828 7.797 6.93353649682
Ar 10.6338147377 7.8366 33.2203244047
Ar 8.3027841562 7.8762 -0.329183309828
Ar 32.708076763 7.9158 22.8575452926
Ar -0.983115351186 7.9554 22.2452662994
Ar 24.29799128 7.995 -0.0830718019475
Ar 20.7355722068 8.0346 33.4908024237
Ar 0.664292928451 8.0742 6.30191617031
Ar 33.8617609741 8.1138 12.7984485074
Ar 4.96720333509 8.1534 30.4493829717
Ar 14.3590053943 8.193 -2.114527057
Ar 29.4444638484 8.2326 28.2696046774
Ar -2.23268708601 8.2722 16.0439732199
Ar 29.4125683056 8.3118 3.64976864782
Ar 14.4367464228 8.3514 34.1929003916
Ar 4.83916959415 8.391 1.52558643865
Ar 34.008913382 8.4306 19.146334874
Ar 0.567392943622 8.4702 25.8632081882
Ar 20.7069245496 8.5098 -1.70356517037
Ar 24.4810465976 8.5494 32.2574254208
Ar -1.26478460042 8.589 9.74522184956
Ar 32.9560185463 8.6286 8.95331128756
Ar 8.23615073773 8.6682 32.6735786679
Ar 10.4429401865 8.7078 -1.54446613611
Ar 31.9480124071 8.7474 25.2003846126
Ar -2.00382709532 8.787 20.0015835795
Ar 26.5670171463 8.8266 0.884819622641
Ar 18.4060941057 8.8662 34.30818135
Ar 1.83283004699 8.9058 4.12514366755
Ar 34.4686637447 8.9454 15.1952555691
Ar 2.90042501999 8.985 29.0890166842
Ar 16.8040877118 9.0246 -2.50548972748
Ar 27.902652062 9.0642 30.2094918657
Ar -2.40397259879 9.1038 13.570103816
Ar 31.2096495096 9.1434 5.3611559196
Ar 11.9538559881 9.183 34.1425321649
Ar 6.70686895365 9.2226 -0.113886471252
Ar 33.7366947057 9.2622 21.618361471
Ar -0.900903579097 9.3018 23.8537491449
Ar 23.1482439097 9.3414 -1.21108423429
Ar 22.3455543153 9.381 33.5423235561
Ar -0.55540509712 9.4206 7.35425146052
Ar 34.0467435528 9.4602 11.1980609584
Ar 5.91481057737 9.4998 31.7524160288
Ar 12.7792552968 9.5394 -2.43178015496
Ar 30.8218958469 9.579 27.4333299042
Ar -2.68010649327 9.6186 17.5921701661
Ar 28.6934717506 9.6582 2.20739896242
Ar 15.9426773281 9.6978 34.7674811417
Ar 3.34178445358 9.7374 2.12245971582
Ar 34.7067685577 9.777 17.6931056427
Ar 1.03783516844 9.8166 27.4052931542
Ar 19.3164826195 9.8562 -2.51995088287
Ar 26.0571928739 9.8958 31.9167538399
Ar -2.19413099124 9.9354 11.0632113964
Ar 32.7475640568 9.975 7.35399213631
Ar 9.47251119077 10.0146 33.709526741
Ar 8.83151159834 10.0542 -1.46976321344
Ar 33.0834564557 10.0938 24.0542769618
Ar -2.06348570364 10.1334 21.6139595167
Ar 25.5191720353 10.173 -0.342315729501
Ar 20.0082339137 10.2126 34.5018808029
Ar 0.522454278598 10.2522 5.06738733997
Ar 34.7951530322 10.2918 13.6144791309
Ar 3.7304515463 10.3314 30.4735931692
Ar 15.2556681929 10.371 -2.96259433084
Ar 29.3518624215 10.4106 29.4975275478
Ar -2.98860776826 10.4502 15.0753832923
Ar 30.6207796125 10.4898 3.85734015088
Ar 13.4054982002 10.5294 34.8507225902
Ar 5.15886894195 10.569 0.347706284174
Ar 34.563600463 10.6086 20.2304941624
Ar -0.56989039482 10.6482 25.4351913842
Ar 21.8338581992 10.6878 -2.1510328492
Ar 23.9494502041 10.7274 33.3442873575
Ar -1.60192951782 10.767 8.58594835637
Ar 33.9831582873 10.8066 9.5828703545
Ar 7.05517613284 10.8462 32.8982982625
Ar 11.1640216732 10.8858 -2.50318427341
Ar 32.0592159702 10.9254 26.3923121019
Ar -2.88609744761 10.965 19.1961807954
Ar 27.7591348157 11.0046 0.887208747723
Ar 17.5242633696 11.0442 35.10671647
Ar 1.947881084 11.0838 2.94351850056
Ar 35.1769735697 11.1234 16.1450028816
Ar 1.73980184617 11.163 28.8632266204
Ar 17.8127012632 11.2026 -3.1179329117
Ar 27.5690141216 11.2422 31.338867795
Ar -2.91580013123 11.2818 12.5121300945
Ar 32.297885337 11.3214 5.79881442663
Ar 10.8563972429 11.361 34.5499229437
Ar 7.2438245979 11.4006 -1.15152625336
Ar 34.0367828117 11.4402 22.7451503226
Ar -1.87900846505 11.4798 23.2230683295
Ar 24.2940193565 11.5194 -1.40197771791
Ar 21.6275141611 11.559 34.4525469597
Ar -0.636196166552 11.5986 6.19992927596
Ar 34.8814006985 11.6382 11.9963619972
Ar 4.76238534069 11.6778 31.7231826016
Ar 13.6500533976 11.7174 -3.18391143117
Ar 30.6836945011 11.757 28.5735026666
Ar -3.34353409986 11.7966 16.6572315479
Ar 29.8112153378 11.8362 2.45254852852
Ar 14.9524700772 11.8758 35.3368585813
Ar 3.69092327086 11.9154 1.03705461095
Ar 35.1776225824 11.955 18.7292757251
Ar -0.00567525850632 11.9946 26.9560314183
Ar 20.388960554 12.0342 -2.88871557474
Ar 25.5125422701 12.0738 32.9092486454
Ar -2.45817372467 12.1134 9.96434246442
Ar 33.6804354219 12.153 7.98847683887
Ar 8.35734089253 12.1926 33.867165845
Ar 9.54950882012 12.2322 -2.33498939683
Ar 33.1339704669 12.2718 25.1755763327
Ar -2.85369846909 12.3114 20.8194778514
Ar 26.6364358661 12.351 -0.285944198707
Ar 19.1449362114 12.3906 35.2104267657
Ar 0.68451839013 12.4302 3.96422619058
Ar 35.4161484235 12.4698 14.5383555467
Ar 2.65127428785 12.5094 30.2079669423
Ar 16.2313930997 12.549 -3.49097273783
Ar 28.9857180183 12.5886 30.5431120092
Ar -3.42016047092 12.6282 14.0569530771
Ar 31.6235182174 12.6678 4.32007722408
Ar 12.3538356688 12.7074 35.1821311796
Ar 5.7134310804 12.747 -0.603369255239
Ar 34.7924614951 12.7866 21.3056718306
Ar -1.46099729654 12.8262 24.7943672308
Ar 22.9226769802 12.8658 -2.27587435676
Ar 23.2286691325 12.9054 34.167702617
Ar -1.62221927421 12.945 7.49343103698
Ar 34.7318069486 12.9846 10.3766208522
Ar 5.96888292395 13.0242 32.8144437627
Ar 12.0231370669 13.0638 -3.1706989155
Ar 31.8725561654 13.1034 27.4625663649
Ar -3.46687118551 13.143 18.2798516036
Ar 28.8037296493 13.1826 1.17441985445
Ar 16.5593430964 13.2222 35.5959490375
Ar 2.33249880369 13.2618 1.93392478587
Ar 35.570710112 13.3014 17.1494986582
Ar 0.774190525974 13.341 28.3852055798
Ar 18.8474459679 13.3806 -3.41309518061
Ar 27.0024121665 13.4202 32.2519539587
Ar -3.11020984195 13.4598 11.4566897868
Ar 33.1504160092 13.4994 6.44840229731
Ar 9.78995552166 13.539 34.6423171212
Ar 7.97008391434 13.5786 -1.93605262527
Ar 34.0268210236 13.6182 23.8128451761
Ar -2.58872695787 13.6578 22.4271122738
Ar 25.3532518664 13.6974 -1.29024116271
Ar 20.7694315023 13.737 35.0813569959
Ar -0.424178654076 13.7766 5.15875551347
Ar 35.4239560608 13.8162 12.908475489
Ar 3.74866277228 13.8558 31.4132735347
Ar 14.6076504746 13.8954 -3.63566478303
Ar 30.2791540355 13.935 29.5506683205
Ar -3.70077430513 13.9746 15.6630717544
Ar 30.7430850214 14.0142 2.94762190364
Ar 13.9309611923 14.0538 35.5967405206
Ar 4.27163242092 14.0934 0.158776868754
Ar 35.3381892322 14.133 19.7687104764
Ar -0.822580419343 14.1726 26.2953356849
Ar 21.4367730626 14.2122 -2.9489121815
Ar 24.7782081434 14.2518 33.657583372
Ar -2.41785397552 14.2914 8.91773966121
Ar 34.3536467397 14.331 8.7894612159
Ar 7.32148901544 14.3706 33.7270900062
Ar 10.4095798498 14.4102 -2.92722541117
Ar 32.8957955303 14.4498 26.191267218
Ar -3.35985820271 14.4894 19.9083898498
Ar 27.6227703401 14.529 0.0477938537991
Ar 18.1913333771 14.5686 35.6262032162
Ar 1.11043002668 14.6082 3.01614755863
Ar 35.7380644829 14.6478 15.525615838
Ar 1.7499764492 14.6874 29.6940919025
Ar 17.2431783699 14.727 -3.71640968055
Ar 28.3888703511 14.7666 31.3895535417
Ar -3.54737878025 14.8062 13.0299680689
Ar 32.4075481507 14.8458 4.99417298569
Ar 11.3210851098 14.8854 35.2102835505
Ar 6.4583698413 14.925 -1.31801851204
Ar 34.7215979194 14.9646 22.334729366
Ar -2.09994365941 15.0042 23.9856120567
Ar 23.9386430891 15.0438 -2.10693926457
Ar 22.3636812059 15.0834 34.7253255029
Ar -1.35704077664 15.123 6.4998107674
Ar 35.2032358485 15.1626 11.2897699819
Ar 5.0066365695 15.2022 32.4557151059
Ar 12.9759613004 15.2418 -3.55185508793
Ar 31.4238095767 15.2814 28.3847172223
Ar -3.75450225463 15.321 17.2961760748
Ar 29.6774471917 15.3606 1.70884668424
Ar 15.5538981262 15.4002 35.7876562063
Ar 2.94750329331 15.4398 1.11652090047
Ar 35.6649677668 15.4794 18.167454952
Ar 0.0204536482625 15.519 27.6954436428
Ar 19.8685623845 15.5586 -3.40926273055
Ar 26.2443771063 15.5982 32.9352621865
Ar -3.00853570163 15.6378 10.4417736843
Ar 33.7571850136 15.6774 7.26762134418
Ar 8.79052562649 15.717 34.4439348171
Ar 8.84285754948 15.7566 -2.46087639419
Ar 33.7337374698 15.7962 24.7876604895
Ar -3.02695120513 15.8358 21.5088844839
Ar 26.2945631894 15.8754 -0.905317221927
Ar 19.8142477367 15.915 35.4291195946
Ar 0.0488978356969 15.9546 4.25951941782
Ar 35.6782204 15.9942 13.8917960098
Ar 2.89967869544 16.0338 30.85652505
Ar 15.6100469296 16.0734 -3.79424576525
Ar 29.6439655894 16.113 30.3416907085
Ar -3.7623567649 16.1526 14.6508203086
Ar 31.4689716177 16.1922 3.65531464073
Ar 12.9181530236 16.2318 35.5608899128
Ar 5.04524416432 16.2714 -0.495399020015
Ar 35.2053545034 16.311 20.7727831661
Ar -1.39912811184 16.3506 25.4629801127
Ar 22.422907387 16.3902 -2.72042080836
Ar 23.8948089218 16.4298 34.1512951623
Ar -2.09589921975 16.4694 7.95857489284
Ar 34.7600707209 16.509 9.71574839248
Ar 6.39807251127 16.5486 33.3147105052
Ar 11.3702172406 16.5882 -3.24270475353
Ar 32.3968474079 16.6278 27.0704877191
Ar -3.58156335401 16.6674 18.9222452283
Ar 28.4497535674 16.707 0.628672105689
Ar 17.1887502897 16.7466 35.7521567458
Ar 1.76785958485 16.7862 2.2489645572
Ar 35.7671583558 16.8258 16.5354242662
Ar 1.04961073471 16.8654 28.9661816118
Ar 18.2509373185 16.905 -3.64841481284
Ar 27.5971869555 16.9446 32.016693503
Ar -3.3829467954 16.9842 12.0335119341
Ar 32.9557197731 17.0238 5.84234513481
Ar 10.3450806674 17.0634 34.9509407232
Ar 7.35523510078 17.103 -1.78219645656
Ar 34.3697313612 17.1426 23.2813197204
Ar -2.47586483017 17.1822 23.0482906628
Ar 24.8471238084 17.2218 -1.66577547544
Ar 21.394508115 17.2614 35.0095272798
Ar -0.830616748147 17.301 5.63779038332
Ar 35.3930872193 17.3406 12.2819000048
Ar 4.19900742783 17.3802 31.8488422324
Ar 13.9819428838 17.4198 -3.64558040736
Ar 30.7420306886 17.4594 29.1305152422
Ar -3.75119741857 17.499 16.2855773018
Ar 30.3545321355 17.5386 2.4593067881
Ar 14.5479627566 17.5782 35.687297099
Ar 3.7597933823 17.6178 0.514411090326
Ar 35.4684109032 17.6574 19.1594833248
Ar -0.501095366085 17.697 26.8287401112
Ar 20.8375601004 17.7366 -3.11823808517
Ar 25.3311758177 17.7762 33.3713916662
Ar -2.62563178309 17.8158 9.50472843319
Ar 34.103807253 17.8554 8.21897620091
Ar 7.89407261317 17.895 33.9725761146
Ar 9.82366777462 17.9346 -2.71471202059
Ar 33.1781544653 17.9742 25.635241269
Ar -3.18555933721 18.0138 20.5075934067
Ar 27.0854261322 18.0534 -0.270509223756
Ar 18.8016464244 18.093 35.4909205878
Ar 0.757206714154 18.1326 3.53271468912
Ar 35.642510973 18.1722 14.9064228746
Ar 2.2437009095 18.2118 30.0811137106
Ar 16.617383735 18.2514 -3.66120636764
Ar 28.8084679763 18.291 30.9207058982
Ar -3.5330511128 18.3306 13.6600365962
Ar 31.9655775169 18.3702 4.54332665977
Ar 11.9530497129 18.4098 35.2372566876
Ar 5.97771013993 18.4494 -0.904887738971
Ar 34.7901912777 18.489 21.7032965459
Ar -1.7175739262 18.5286 24.4945376855
Ar 23.3102193277 18.5682 -2.21736032888
Ar 22.8992092713 18.6078 34.3755909997
Ar -1.50937824633 18.6474 7.12270015849
Ar 34.8879574437 18.687 10.7294227962
Ar 5.62142049595 18.7266 32.6499314676
Ar 12.3927016334 18.7662 -3.2727929697
Ar 31.6597332064 18.8058 27.7806524046
Ar -3.51334755241 18.8454 17.900315199
Ar 29.0867533691 18.885 1.43152977093
Ar 16.1767548231 18.9246 35.5860216193
Ar 2.62925791193 18.9642 1.69115906272
Ar 35.5043772428 19.0038 17.5281731682
Ar 0.57632539234 19.0434 28.0539932949
Ar 19.2152794606 19.083 -3.29114025658
Ar 26.6424389716 19.1226 32.400885751
Ar -2.93419328819 19.1622 11.1065025008
Ar 33.2470416432 19.2018 6.83101543083
Ar 9.46401510063 19.2414 34.4145597722
Ar 8.36885971186 19.281 -1.97770212289
Ar 33.7503790778 19.3206 24.1082229929
Ar -2.57346843778 19.3602 22.0189308773
Ar 25.6121137327 19.3998 -0.968872956421
Ar 20.3588015227 19.4394 35.0080239056
Ar -0.0623035803814 19.479 4.9419268015
Ar 35.2921660798 19.5186 13.3144794323
Ar 3.57887902375 19.5582 31.0159235122
Ar 15.0019201681 19.5978 -3.44583017835
Ar 29.8519180053 19.6374 29.6689647138
Ar -3.45410360174 19.677 15.2875933109
Ar 30.8060791975 19.7166 3.39865990251
Ar 13.5811950535 19.7562 35.295231437
Ar 4.73996098543 19.7958 0.154220664943
Ar 34.9846129161 19.8354 20.0860629811
Ar -0.766286482265 19.875 25.8165824543
Ar 21.7153122876 19.9146 -2.54678886812
Ar 24.2961733664 19.9542 33.5387875996
Ar -1.97142027404 19.9938 8.68403239562
Ar 34.1714867864 20.0334 9.26743810995
Ar 7.13817564923 20.073 33.2412581051
Ar 10.8760468568 20.1126 -2.68164879736
Ar 32.3761046925 20.1522 26.3191529492
Ar -3.05163421215 20.1918 19.4609115951
Ar 27.6907892977 20.2314 0.595233057226
Ar 17.7702627747 20.271 35.2569259926
Ar 1.67899822222 20.3106 3.01177931085
Ar 35.3101472325 20.3502 15.9130069095
Ar 1.81233349166 20.3898 29.1114542375
Ar 17.5898514503 20.4294 -3.23306997336
Ar 27.7995887426 20.469 31.2581530835
Ar -3.01261502955 20.5086 12.7307331737
Ar 32.2055821124 20.5482 5.58238593417
Ar 11.0756079056 20.5878 34.6288428382
Ar 7.03759738984 20.6274 -1.04479213636
Ar 34.0989354195 20.667 22.5206091956
Ar -1.75561259115 20.7066 23.4234046366
Ar 24.0596406953 20.7462 -1.44916960236
Ar 21.8265581216 20.7858 34.3109100213
Ar -0.670881740243 20.8254 6.44835530731
Ar 34.7206261089 20.865 11.7938050402
Ar 5.02869384016 20.9046 31.7484242067
Ar 13.4390557471 20.9442 -3.00380723068
Ar 30.7031140269 20.9838 28.2859239992
Ar -3.14462532645 21.0234 16.8816334497
Ar 29.4994931433 21.063 2.43482593912
Ar 15.1951881165 21.1026 35.1203899292
Ar 3.6703327871 21.1422 1.3752189396
Ar 34.945551278 21.1818 18.4634688722
Ar 0.360601924256 21.2214 26.9844241966
Ar 20.0955179313 21.261 -2.6436945044
Ar 25.5539654333 21.3006 32.513860966
Ar -2.20352495461 21.3402 10.2896576402
Ar 33.2556493408 21.3798 7.92858229139
Ar 8.7183738468 21.4194 33.6068447785
Ar 9.46557374938 21.459 -1.88125438078
Ar 32.8725209853 21.4986 24.7754492682
Ar -2.37221956363 21.5382 20.9330629298
Ar 26.1943795963 21.5778 -0.0284452332035
Ar 19.2937313088 21.6174 34.703173074
Ar 0.932514315409 21.657 4.45043907141
Ar 34.8858516572 21.6966 14.348930706
Ar 3.18320376928 21.7362 29.9754313206
Ar 15.9961498405 21.7758 -2.94111574792
Ar 28.7749291676 21.8154 29.9646255796
Ar -2.85495576949 21.855 14.3428827244
Ar 30.9983981626 21.8946 4.50258505704
Ar 12.6949114689 21.9342 34.6064895752
Ar 5.86096232085 21.9738 0.0676622171146
Ar 34.2119510676 22.0134 20.9054826228
Ar -0.745601371561 22.053 24.6885789313
Ar 22.4599797178 22.0926 -1.69667010401
Ar 23.1713672146 22.1322 33.4103300584
Ar -1.0510438658 22.1718 8.0213834802
Ar 33.9356924176 22.2114 10.3788116449
Ar 6.56412135889 22.251 32.2584999334
Ar 11.9638075318 22.2906 -2.33991956323
Ar 31.3394513768 22.3302 26.7987892401
Ar -2.60633183766 22.3698 18.4067983033
Ar 28.0709932347 22.4094 1.67675576861
Ar 16.7595957148 22.449 34.7113569004
Ar 2.79590220894 22.4886 2.73516356005
Ar 34.6685390948 22.5282 16.8707529704
Ar 1.64256098388 22.5678 27.9690382034
Ar 18.4856119076 22.6074 -2.50054003834
Ar 26.641825906 22.647 31.3187626645
Ar -2.19513045323 22.6866 11.905529766
Ar 32.1556710544 22.7262 6.74512251016
Ar 10.3289606645 22.7658 33.7331733205
Ar 8.19481738193 22.8054 -0.883983022191
Ar 33.1325985126 22.845 23.1813481202
Ar -1.48451814008 22.8846 22.2822166663
Ar 24.6278355505 22.9242 -0.420369123647
Ar 20.7118497841 22.9638 33.9311343147
Ar 0.411560216343 23.0034 5.97856028764
Ar 34.2347571381 23.043 12.8717468975
Ar 4.66231727207 23.0826 30.6217073052
Ar 14.4701971658 23.1222 -2.41540078023
Ar 29.5419540703 23.1618 28.5447508524
Ar -2.4581802803 23.2014 15.9069830281
Ar 29.6475691355 23.241 3.62021537713
Ar 14.286287749 23.2806 34.3413151612
Ar 4.86944401568 23.3202 1.34012992665
Ar 34.0801243612 23.3598 19.2978765456
Ar 0.439744276575 23.3994 25.7823022583
Ar 20.8472876602 23.439 -1.69901254622
Ar 24.359654135 23.4786 32.3202528112
Ar -1.18744793218 23.5182 9.62799741124
Ar 32.9483604108 23.5578 9.10424605705
Ar 8.15355003141 23.5974 32.5279318173
Ar 10.6118330669 23.637 -1.46208984477
Ar 31.7399600857 23.6766 25.2375193389
Ar -1.84399650723 23.7162 19.8267895036
Ar 26.5486465069 23.7558 1.14802299062
Ar 18.237755101 23.7954 34.0697033836
Ar 2.14267826486 23.835 4.20810564233
Ar 34.1519161023 23.8746 15.3446614537
Ar 3.05597151685 23.9142 28.7421678992
Ar 16.9221404532 23.9538 -2.11242942564
Ar 27.5294568673 23.9934 29.9745870461
Ar -1.93812515057 24.033 13.4955861604
Ar 30.8899443439 24.0726 5.74917485384
Ar 11.934638973 24.1122 33.6089614635
Ar 7.09747344298 24.1518 0.294632412156
Ar 33.1419538569 24.1914 21.5711032527
Ar -0.401066468626 24.231 23.4733498036
Ar 23.0240957155 24.2706 -0.563147783709
Ar 21.9885320994 24.3102 32.9502351375
Ar 0.136416707538 24.3498 7.56478322061
Ar 33.363086294 24.3894 11.51833045
Ar 6.2201464558 24.429 31.0272519452
Ar 13.0493749885 24.4686 -1.6588771337
Ar 30.0750463852 24.5082 27.0259831177
Ar -1.82192697691 24.5478 17.3854341601
Ar 28.1782489579 24.5874 2.96329702467
Ar 15.8122105249 24.627 33.8296264635
Ar 4.09326201542 24.6666 2.7499683033
Ar 33.6964382686 24.7062 17.7349497613
Ar 1.78048609893 24.7458 26.6723778484
Ar 19.2580627368 24.7854 -1.44588935985
Ar 25.3574840751 24.825 31.0577382772
Ar -1.06655488555 24.8646 11.2326498381
Ar 31.772658878 24.9042 8.00552658858
Ar 9.76266889371 24.9438 32.540033849
Ar 9.41976608369 24.9834 -0.3811849302
Ar 31.8849167885 25.023 23.6349108549
Ar -0.865216958076 25.0626 21.1040376226
Ar 24.963466433 25.1022 0.871254252696
Ar 19.5914504915 25.1418 33.1996749422
Ar 1.73603312374 25.1814 5.76507191602
Ar 33.3965183176 25.221 13.9237596155
Ar 4.57414393294 25.2606 29.2758760723
Ar 15.4437162094 25.3002 -1.47675767933
Ar 28.1865581077 25.3398 28.5055121787
Ar -1.42645813222 25.3794 15.0214720543
Ar 29.4799254492 25.419 4.97318024326
Ar 13.4976178526 25.4586 33.2247342866
Ar 6.20788252603 25.4982 1.63604848781
Ar 32.8877369698 25.5378 19.9816373367
Ar 0.86267480357 25.5774 24.4704802173
Ar 21.4189140427 25.617 -0.440631788898
Ar 23.086428049 25.6566 31.7727059462
Ar 0.126430255939 25.6962 9.17481683299
Ar 32.2797157348 25.7358 10.3271128231
Ar 7.82414878572 25.7754 31.169650157
Ar 11.7728978727 25.815 -0.676969196072
Ar 30.3488762364 25.8546 25.4388417185
Ar -0.948095763148 25.8942 18.7385457582
Ar 26.6186722311 25.9338 2.55989633617
Ar 17.23282784 25.9734 33.0697536675
Ar 3.56301736547 26.013 4.27147372725
Ar 33.0556357176 26.0526 16.2563970625
Ar 3.25368030478 26.0922 27.3258938419
Ar 17.7315216689 26.1318 -0.928466841768
Ar 26.1298789388 26.1714 29.642760943
Ar -0.675993447654 26.211 12.796922713
Ar 30.4254047591 26.2506 7.11943394682
Ar 11.3541763827 26.2902 32.278964714
Ar 8.42590902823 26.3298 0.88930107
Ar 31.7551059967 26.3694 22.0268363433
Ar 0.319976275869 26.409 22.1990146391
Ar 23.3495918195 26.4486 0.868915407845
Ar 20.7802376469 26.4882 32.1077237379
Ar 1.6015318368 26.5278 7.37395181166
Ar 32.405131924 26.5674 12.6490875909
Ar 6.1672777074 26.607 29.5416761895
Ar 14.0916462641 26.6466 -0.59258564189
Ar 28.5819248596 26.6862 26.9387617849
Ar -0.655434634825 26.7258 16.4419485294
Ar 27.9500118746 26.7654 4.45083412715
Ar 14.9770653278 26.805 32.5720409016
Ar 5.56198033257 26.8446 3.1189237984
Ar 32.3577704991 26.8842 18.4530355751
Ar 2.2886286297 26.9238 25.2357036335