n15.ulysses.mit.edu 127.0.1
Q-Chem Developer Version! Running on 127.0.1.*
                  Welcome to Q-Chem
     A Quantum Leap Into The Future Of Chemistry


 Q-Chem 4.4, Q-Chem, Inc., Pleasanton, CA (2016)

 Y. Shao,  Z. Gan,  E. Epifanovsky,  A. T. B. Gilbert,  M. Wormit,  
 J. Kussmann,  A. W. Lange,  A. Behn,  J. Deng,  X. Feng,  D. Ghosh,  
 M. Goldey,  P. R. Horn,  L. D. Jacobson,  I. Kaliman,  F.Rob,  
 R. Z. Khaliullin,  T. Kus,  A. Landau,  J. Liu,  E. I. Proynov,  Y. M. Rhee,  
 R. M. Richard,  M. A. Rohrdanz,  R. P. Steele,  E. J. Sundstrom,  
 H. L. Woodcock III,  P. M. Zimmerman,  D. Zuev,  B. Albrecht,  E. Alguire,  
 B. Austin,  S. A. Baeppler,  G. J. O. Beran,  Y. A. Bernard,  E. Berquist,  
 K. Brandhorst,  K. B. Bravaya,  S. T. Brown,  D. Casanova,  C.-M. Chang,  
 Y. Chen,  S. H. Chien,  K. D. Closser,  M. P. Coons,  D. L. Crittenden,  
 S. Dasgupta,  M. Diedenhofen,  R. A. DiStasio Jr.,  H. Do,  A. D. Dutoi,  
 R. G. Edgar,  P.-T. Fang,  S. Fatehi,  Q. Feng,  L. Fusti-Molnar,  
 A. Ghysels,  A. Golubeva-Zadorozhnaya,  J. Gomes,  A. Gunina,  
 M. W. D. Hanson-Heine,  P. H. P. Harbach,  A. W. Hauser,  E. G. Hohenstein,  
 Z. C. Holden,  K. Hui,  T.-C. Jagau,  H. Ji,  B. Kaduk,  K. Khistyaev,  
 Jaehoon Kim,  Jihan Kim,  R. A. King,  P. Klunzinger,  D. Kosenkov,  
 T. Kowalczyk,  C. M. Krauter,  A. Kunitsa,  K. U. Lao,  A. Laurent,  
 K. V. Lawler,  D. Lefrancois,  S. Lehtola,  S. V. Levchenko,  C. Y. Lin,  
 Y.-S. Lin,  F. Liu,  E. Livshits,  R. C. Lochan,  A. Luenser,  P. Manohar,  
 S. F. Manzer,  S.-P. Mao,  Y. Mao,  N. Mardirossian,  A. V. Marenich,  
 L. A. Martinez-Martinez,  S. A. Maurer,  N. J. Mayhall,  J.-M. Mewes,  
 A. F. Morrison,  K. Nanda,  C. M. Oana,  R. Olivares-Amaya,  D. P. O'Neill,  
 J. A. Parkhill,  T. M. Perrine,  R. Peverati,  P. A. Pieniazek,  F. Plasser,  
 A. Prociuk,  D. R. Rehn,  E. Rosta,  N. J. Russ,  N. Sergueev,  
 S. M. Sharada,  S. Sharma,  D. W. Small,  A. Sodt,  T. Stauch,  T. Stein,  
 D. Stuck,  Y.-C. Su,  A. J. W. Thom,  T. Tsuchimochi,  L. Vogt,  O. Vydrov,  
 T. Wang,  M. A. Watson,  J. Wenzel,  A. White,  C. F. Williams,  
 V. Vanovschi,  S. Yeganeh,  S. R. Yost,  Z.-Q. You,  I. Y. Zhang,  X. Zhang,  
 Y. Zhao,  B. R. Brooks,  G. K. L. Chan,  D. M. Chipman,  C. J. Cramer,  
 W. A. Goddard III,  M. S. Gordon,  W. J. Hehre,  A. Klamt,  
 H. F. Schaefer III,  M. W. Schmidt,  C. D. Sherrill,  D. G. Truhlar,  
 A. Warshel,  X. Xu,  A. Aspuru-Guzik,  R. Baer,  A. T. Bell,  N. A. Besley,  
 J.-D. Chai,  A. Dreuw,  B. D. Dunietz,  T. R. Furlani,  S. R. Gwaltney,  
 C.-P. Hsu,  Y. Jung,  J. Kong,  D. S. Lambrecht,  W. Liang,  C. Ochsenfeld,  
 V. A. Rassolov,  L. V. Slipchenko,  J. E. Subotnik,  T. Van Voorhis,  
 J. M. Herbert,  A. I. Krylov,  P. M. W. Gill,  M. Head-Gordon

 Contributors to earlier versions of Q-Chem not listed above: 
 R. D. Adamson,  J. Baker,  E. F. C. Byrd,  A. K. Chakraborty,  C.-L. Cheng,  
 H. Dachsel,  R. J. Doerksen,  G. Hawkins,  A. Heyden,  S. Hirata,  
 G. Kedziora,  F. J. Keil,  C. Kelley,  P. P. Korambath,  W. Kurlancheek,  
 A. M. Lee,  M. S. Lee,  D. Liotard,  I. Lotan,  P. E. Maslen,  N. Nair,  
 D. Neuhauser,  R. Olson,  B. Peters,  J. Ritchie,  N. E. Schultz,  
 N. Shenvi,  A. C. Simmonett,  K. S. Thanthiriwatte,  Q. Wu,  W. Zhang

 Please cite Q-Chem as follows:
 Y. Shao et al., Mol. Phys. 113, 184-215 (2015)
 DOI: 10.1080/00268976.2014.952696

 Q-Chem 4.4.1 for Intel X86 EM64T Linux

 Parts of Q-Chem use Armadillo 5.200.1 (Boston Tea Smuggler).
 http://arma.sourceforge.net/

 Q-Chem begins on Mon Feb 27 10:47:05 2017  

Host: 
0

     Scratch files written to /scratch/nricke/qchem22118//
Processing $rem in /opt/qchem.20160914/config/preferences.
xc_grid     000075000302
max_scf_cycles  200
geom_opt_max_cycles 200
symmetry    false
sym_ignore  true
Symmetry turned off for PCM calculation

Checking the input file for inconsistencies... 	...done.

--------------------------------------------------------------
User input:
--------------------------------------------------------------
$molecule
0 1
Ni        -0.52166        1.61000       -0.00581
N         -1.89004        2.89602       -0.00580
N         -1.95207        0.40229       -0.01226
N          0.80863        2.87635        0.00213
N          0.75486        0.29861       -0.01300
C         -3.18534        2.36300       -0.03296
H         -1.75611        3.91309       -0.12455
C         -3.21824        0.99735        0.02892
H         -1.86456       -0.61984        0.10921
C         -4.42936        0.30196        0.09018
C         -5.62340        1.03403        0.05769
C         -5.58994        2.44186       -0.03523
C         -4.36239        3.11548       -0.08090
C          2.08616        2.30517        0.05542
H          0.71730        3.86871        0.12824
C          2.05103        0.83452       -0.06189
H          0.61032       -0.69457       -0.14175
C          3.18382        0.10922       -0.09721
C          4.47673        0.81617       -0.06134
C          4.51064        2.15265        0.04149
C          3.27512        2.95596        0.32091
H         -4.34749        4.20958       -0.14645
H         -6.57250        0.52145        0.09657
H         -6.51361        2.99964       -0.06386
H         -4.46653       -0.79158        0.15618
H          3.20218       -0.98131       -0.15798
H          5.38536        0.23925       -0.08428
H          5.44404        2.69648        0.09378
H          3.43742        3.84639       -0.38183
O          3.20607        3.12314        1.84650
O          2.94281        4.51130        2.05916
$end

$rem
method b3lyp
basis 6-31+g*
thresh 12
mem_total 4096 
mem_static 512
jobtype opt
geom_opt_tol_gradient 5
geom_opt_tol_displacement 10
geom_opt_tol_energy 5
solvent_method pcm
$end

$pcm
theory cpcm
method swig
solver inversion
heavypoints 194
hpoints 194
radii bondi
vdwscale 1.2
$end

$solvent
dielectric 78.39
$end

$van_der_waals
1
28  1.63
$end
--------------------------------------------------------------
 ----------------------------------------------------------------
             Standard Nuclear Orientation (Angstroms)
    I     Atom           X                Y                Z
 ----------------------------------------------------------------
    1      Ni     -0.5216600000     1.6100000000    -0.0058100000
    2      N      -1.8900400000     2.8960200000    -0.0058000000
    3      N      -1.9520700000     0.4022900000    -0.0122600000
    4      N       0.8086300000     2.8763500000     0.0021300000
    5      N       0.7548600000     0.2986100000    -0.0130000000
    6      C      -3.1853400000     2.3630000000    -0.0329600000
    7      H      -1.7561100000     3.9130900000    -0.1245500000
    8      C      -3.2182400000     0.9973500000     0.0289200000
    9      H      -1.8645600000    -0.6198400000     0.1092100000
   10      C      -4.4293600000     0.3019600000     0.0901800000
   11      C      -5.6234000000     1.0340300000     0.0576900000
   12      C      -5.5899400000     2.4418600000    -0.0352300000
   13      C      -4.3623900000     3.1154800000    -0.0809000000
   14      C       2.0861600000     2.3051700000     0.0554200000
   15      H       0.7173000000     3.8687100000     0.1282400000
   16      C       2.0510300000     0.8345200000    -0.0618900000
   17      H       0.6103200000    -0.6945700000    -0.1417500000
   18      C       3.1838200000     0.1092200000    -0.0972100000
   19      C       4.4767300000     0.8161700000    -0.0613400000
   20      C       4.5106400000     2.1526500000     0.0414900000
   21      C       3.2751200000     2.9559600000     0.3209100000
   22      H      -4.3474900000     4.2095800000    -0.1464500000
   23      H      -6.5725000000     0.5214500000     0.0965700000
   24      H      -6.5136100000     2.9996400000    -0.0638600000
   25      H      -4.4665300000    -0.7915800000     0.1561800000
   26      H       3.2021800000    -0.9813100000    -0.1579800000
   27      H       5.3853600000     0.2392500000    -0.0842800000
   28      H       5.4440400000     2.6964800000     0.0937800000
   29      H       3.4374200000     3.8463900000    -0.3818300000
   30      O       3.2060700000     3.1231400000     1.8465000000
   31      O       2.9428100000     4.5113000000     2.0591600000
 ----------------------------------------------------------------
 Nuclear Repulsion Energy =  1775.1689673631 hartrees
 There are       78 alpha and       78 beta electrons
 Requested basis set is 6-31+G(d)
 There are 122 shells and 402 basis functions

 Total QAlloc Memory Limit   4096 MB
 Mega-Array Size       501 MB
 MEM_STATIC part       512 MB
No default van der Waals radius is available for Z = 28
	Found R = 1.6300 A in the $van_der_waals section
Discretize the solute cavity surface with Lebedev spheres
	Using 194 Lebedev grid points for each H atom
	Using 194 Lebedev grid points for other atoms
	Atomic van der Waals radii will be scaled by 1.20
 Serial switch compute.
 Remove points where switching function is < 1.0e-08
 Keep 2586 surface tesserae and discard 3428 interior tesserae
 Molecular Surface Area = 296.090 Angst**2
 A cutoff of  1.0D-12 yielded   5497 shell pairs
 There are     63930 function pairs (     64938 Cartesian)
 
 -------------------------------------------------------
 OpenMP Integral Computing Module                       
 Release: version 1.0, May 2013, Q-Chem Inc. Pittsburgh 
 -------------------------------------------------------
 Integral Job Info:
 Integral job number is                      11
 Integral operator is                         1
 short-range coefficients                     0
 long-range coefficients              100000000
 Omega coefficients                           0
 if combine SR and LR in K                    0
 Integral screening is                        0
 Integral computing path is                   2
 max size of driver memory is            800000
 size of driver memory is                776718
 size of scratch memory is             15346240
 max col of scratch BK array              10000
 max len of scratch array in speh3          662
 max len of scratch index in speh4           32
 max int batch size is                      520
 min int batch size is                       52
 fixed nKL is                                52
 max L of basis functions is                  3
 order of int derivative is                   0
 number of shells is                        122
 number of basis is                         405
 number of cartesian basis is               405
 number of contracted shell pairs          5497
 number of primitive shell pairs          18038
 maxK2 (contraction) of shell pair           36
 max number of K2 of shell pair               1
 max number of CS2 of shell pair            711
 max number of PS2 of shell pair           4224
 mem total for path MDJ                  148712
 -------------------------------------------------------
 Smallest overlap matrix eigenvalue = 8.26E-07
 Linear dependence detected in AO basis
 Number of orthogonalized atomic orbitals = 401
 Maximum deviation from orthogonality = 1.606E-10

 Scale SEOQF with 1.000000e-02/1.000000e-01/1.000000e-01

 Standard Electronic Orientation quadrupole field applied
 Nucleus-field energy     =     0.0000000543 hartrees
 Guess from superposition of atomic densities
 Warning:  Energy on first SCF cycle will be non-variational
 A restricted hybrid HF-DFT SCF calculation will be
 performed using Pulay DIIS extrapolation
 Polarizable Continuum solvation model will be applied
 Exchange:     0.2000 Hartree-Fock + 0.0800 Slater + 0.7200 B88
 Correlation:  0.1900 VWN1RPA + 0.8100 LYP
 Using Euler-Maclaurin-Lebedev (75,302) quadrature formula
 SCF converges when DIIS error is below 1.0E-08
 using 2 threads for integral computing 
 -------------------------------------------------------
 OpenMP BLAS3 based DFT computing Module                
 Release: version 1.0, May 2013, Q-Chem Inc. Pittsburgh 
 -------------------------------------------------------
 ---------------------------------------
  Cycle       Energy         DIIS Error
 ---------------------------------------
    1   -2345.9790644908      3.63E-02
    2   -2341.7343806904      3.68E-03
    3   -2340.1166473404      8.82E-03
    4   -2341.6403994163      4.85E-03
    5   -2341.8585404180      3.38E-03
    6   -2341.9319779994      2.62E-03
    7   -2341.9991820817      7.08E-04
    8   -2342.0072901719      2.56E-04
    9   -2342.0079165960      1.82E-04
   10   -2342.0085484994      7.12E-05
   11   -2342.0086348029      2.67E-05
   12   -2342.0086548009      1.04E-05
   13   -2342.0086617323      6.18E-06
   14   -2342.0086632947      2.44E-06
   15   -2342.0086635602      1.49E-06
   16   -2342.0086636473      7.17E-07
   17   -2342.0086636721      3.63E-07
   18   -2342.0086636832      2.93E-07
   19   -2342.0086636880      1.59E-07
   20   -2342.0086636908      6.80E-08
   21   -2342.0086636911      3.81E-08
   22   -2342.0086636912      1.56E-08
   23   -2342.0086636912      8.49E-09 Convergence criterion met
 ---------------------------------------

************** Final PCM Free Energy Summary **************
 G_electrostatic  =      -0.07468794 hartree =     -46.86738846 kcal/mol
 G_cavitation     =       0.00000000 hartree =       0.00000000 kcal/mol
 G_dispersion     =       0.00000000 hartree =       0.00000000 kcal/mol
 G_repulsion      =       0.00000000 hartree =       0.00000000 kcal/mol
 --------------------------------------------------
 Non-electrostatic Free Energy =       0.00000000 hartree =       0.00000000 kcal/mol
 Total                         =      -0.07468794 hartree =     -46.86738846 kcal/mol
 --------------------------------------------------
 SCF Energy (H0 + V/2)                       =   -2342.00866369 
 Solute Internal Energy (H0)                 =   -2341.93397575 
 Total Free Energy (H0 + V/2 + non-elec)     =   -2342.00866369 hartree
                                             = -1469632.61763027 kcal/mol
***********************************************************

 SCF time:  CPU 1337.00 s  wall 722.26 s
 SCF   energy in the final basis set = -2342.0086636912
 Total energy in the final basis set = -2342.0086636912
 
 --------------------------------------------------------------
 
                    Orbital Energies (a.u.)
 --------------------------------------------------------------
 
 Alpha MOs
 -- Occupied --
******* -35.871 -31.312 -31.301 -31.280 -19.204 -19.113 -14.380
-14.375 -14.371 -14.360 -10.275 -10.254 -10.253 -10.252 -10.251
-10.229 -10.214 -10.213 -10.213 -10.212 -10.211 -10.210  -4.064
 -2.674  -2.655  -2.618  -1.060  -0.952  -0.945  -0.887  -0.876
 -0.857  -0.847  -0.795  -0.752  -0.742  -0.733  -0.728  -0.647
 -0.642  -0.613  -0.602  -0.552  -0.542  -0.520  -0.513  -0.503
 -0.495  -0.477  -0.464  -0.458  -0.454  -0.448  -0.431  -0.429
 -0.424  -0.409  -0.400  -0.393  -0.379  -0.371  -0.360  -0.356
 -0.352  -0.344  -0.340  -0.336  -0.327  -0.323  -0.308  -0.275
 -0.269  -0.267  -0.231  -0.217  -0.214  -0.185
 -- Virtual --
 -0.151  -0.104  -0.056  -0.020  -0.002   0.001   0.003   0.014
  0.017   0.021   0.030   0.033   0.041   0.043   0.045   0.051
  0.053   0.059   0.065   0.067   0.069   0.073   0.084   0.087
  0.092   0.095   0.104   0.105   0.114   0.117   0.118   0.122
  0.127   0.130   0.135   0.138   0.145   0.146   0.149   0.153
  0.160   0.165   0.166   0.168   0.173   0.175   0.176   0.182
  0.184   0.192   0.194   0.198   0.203   0.204   0.207   0.209
  0.211   0.219   0.221   0.225   0.228   0.229   0.231   0.236
  0.237   0.243   0.244   0.248   0.249   0.250   0.253   0.260
  0.262   0.264   0.269   0.276   0.280   0.284   0.286   0.289
  0.297   0.300   0.307   0.317   0.320   0.324   0.325   0.327
  0.332   0.341   0.343   0.346   0.355   0.359   0.370   0.373
  0.382   0.388   0.393   0.401   0.407   0.417   0.422   0.429
  0.433   0.442   0.463   0.477   0.487   0.499   0.519   0.555
  0.585   0.594   0.615   0.629   0.651   0.656   0.661   0.688
  0.694   0.704   0.706   0.709   0.723   0.729   0.730   0.735
  0.742   0.746   0.757   0.759   0.765   0.770   0.777   0.802
  0.821   0.836   0.851   0.872   0.873   0.883   0.903   0.906
  0.921   0.936   0.939   0.950   0.955   0.963   0.969   0.979
  0.988   0.990   1.000   1.009   1.028   1.037   1.051   1.053
  1.081   1.084   1.092   1.099   1.101   1.112   1.132   1.141
  1.149   1.167   1.176   1.183   1.196   1.208   1.219   1.231
  1.235   1.243   1.254   1.256   1.269   1.291   1.298   1.313
  1.320   1.333   1.349   1.356   1.363   1.367   1.374   1.389
  1.393   1.415   1.420   1.432   1.441   1.455   1.460   1.470
  1.479   1.487   1.495   1.529   1.530   1.547   1.566   1.617
  1.626   1.638   1.660   1.669   1.674   1.697   1.710   1.720
  1.775   1.776   1.807   1.823   1.827   1.838   1.852   1.865
  1.869   1.883   1.887   1.895   1.905   1.924   1.928   1.962
  1.962   1.967   1.973   1.984   2.010   2.013   2.015   2.038
  2.044   2.063   2.076   2.086   2.109   2.112   2.149   2.160
  2.169   2.175   2.186   2.204   2.208   2.214   2.242   2.260
  2.268   2.281   2.283   2.303   2.311   2.317   2.384   2.400
  2.406   2.446   2.448   2.464   2.496   2.506   2.516   2.538
  2.568   2.572   2.596   2.621   2.623   2.632   2.657   2.674
  2.676   2.694   2.707   2.716   2.742   2.778   2.803   2.838
  2.840   2.862   2.872   2.895   2.916   2.978   3.001   3.014
  3.039   3.178   3.190   3.207   3.234   3.266   3.355   3.444
  3.981   4.127   4.201   4.243   4.266   4.289   4.298   4.318
  4.337   4.361   4.406   4.433   4.448   4.452   4.495   4.612
  4.775   4.788  32.984
 --------------------------------------------------------------
 
          Ground-State Mulliken Net Atomic Charges

     Atom                 Charge (a.u.)
  ----------------------------------------
      1 Ni                    0.336585
      2 N                    -0.713711
      3 N                    -0.706439
      4 N                    -0.618443
      5 N                    -0.686960
      6 C                     0.996716
      7 H                     0.450864
      8 C                     1.002411
      9 H                     0.447736
     10 C                    -0.926290
     11 C                    -0.196149
     12 C                    -0.189047
     13 C                    -0.994176
     14 C                     1.555870
     15 H                     0.463219
     16 C                     1.523977
     17 H                     0.454276
     18 C                    -2.191498
     19 C                     0.000955
     20 C                    -0.359753
     21 C                    -0.649239
     22 H                     0.230317
     23 H                     0.222563
     24 H                     0.222009
     25 H                     0.229603
     26 H                     0.249025
     27 H                     0.223574
     28 H                     0.228706
     29 H                     0.255444
     30 O                    -0.092608
     31 O                    -0.769537
  ----------------------------------------
  Sum of atomic charges =    -0.000000

 -----------------------------------------------------------------
                    Cartesian Multipole Moments
 -----------------------------------------------------------------
    Charge (ESU x 10^10)
                -0.0000
    Dipole Moment (Debye)
         X     -10.6184      Y     -10.0320      Z      -9.2894
       Tot      17.3114
    Quadrupole Moments (Debye-Ang)
        XX     -92.9283     XY     -49.0264     YY    -148.6023
        XZ     -28.1193     YZ     -39.5908     ZZ    -145.6140
    Octopole Moments (Debye-Ang^2)
       XXX    -104.1627    XXY    -273.0151    XYY    -210.6355
       YYY    -821.2091    XXZ    -110.0476    XYZ    -111.9307
       YYZ    -198.5874    XZZ     -29.5885    YZZ    -314.2436
       ZZZ    -119.9267
    Hexadecapole Moments (Debye-Ang^3)
      XXXX   -6435.5639   XXXY    -668.5397   XXYY   -2189.7338
      XYYY   -1166.1167   YYYY   -4511.8077   XXXZ    -503.6555
      XXYZ    -471.3610   XYYZ    -571.7558   YYYZ   -1063.7587
      XXZZ   -1713.5271   XYZZ    -257.8602   YYZZ   -1089.3162
      XZZZ    -361.2683   YZZZ    -486.0523   ZZZZ    -546.1045
 -----------------------------------------------------------------
 Calculating analytic gradient of the SCF energy
 Gradient of SCF Energy
            1           2           3           4           5           6
    1   0.0277842   0.0203646   0.0201175  -0.0647230  -0.0063875  -0.0487216
    2   0.0048393   0.0187277  -0.0083340   0.0558186  -0.0299501  -0.1030592
    3  -0.0055576   0.0089371  -0.0048901   0.0043532   0.0060229  -0.0018856
            7           8           9          10          11          12
    1   0.0100139  -0.0580611   0.0103497   0.0426916  -0.0217544  -0.0205060
    2   0.0240221   0.1056152  -0.0296580   0.0062156   0.0203175  -0.0185536
    3  -0.0047657   0.0008935   0.0028069  -0.0028663   0.0003053   0.0002882
           13          14          15          16          17          18
    1   0.0419506   0.1234361  -0.0095247   0.0590877  -0.0091379  -0.0455665
    2  -0.0075376   0.0102035  -0.0116976   0.0122234  -0.0125328   0.0126247
    3   0.0024973   0.0058600  -0.0070396  -0.0169661  -0.0006425  -0.0004722
           19          20          21          22          23          24
    1   0.0165996  -0.0074450  -0.0707282  -0.0034119  -0.0054510  -0.0049605
    2   0.0211888  -0.0002708  -0.0284335   0.0177622  -0.0022215   0.0019630
    3   0.0015811  -0.0130912   0.0348852  -0.0015786  -0.0000188  -0.0001155
           25          26          27          28          29          30
    1  -0.0042814   0.0050158  -0.0007666  -0.0035397   0.0103045  -0.0096891
    2  -0.0196259  -0.0163245   0.0006978  -0.0034286  -0.0013275  -0.0240081
    3   0.0014106  -0.0017563   0.0035819  -0.0015376  -0.0378088   0.0313524
           31
    1   0.0069401
    2   0.0047442
    3  -0.0037829
 Max gradient component =       1.234E-01
 RMS gradient           =       2.923E-02
 Computing fast CPCM-SWIG gradient.
Updating gradient with PCM contributions...
 -- total gradient after adding PCM contribution --
---------------------------------------------------
  Atom         X              Y              Z     
---------------------------------------------------
   1       0.033534       0.004247      -0.000524
   2       0.019866       0.026859       0.003913
   3       0.021129      -0.020884      -0.003676
   4      -0.073939       0.056532      -0.000179
   5      -0.012671      -0.044773       0.000672
   6      -0.058220      -0.083394       0.001336
   7       0.008650       0.010957      -0.001806
   8      -0.055105       0.085874      -0.000801
   9       0.007954      -0.011976       0.001504
  10       0.037091       0.006746      -0.001212
  11      -0.019793       0.016726      -0.000802
  12      -0.020152      -0.016207       0.001099
  13       0.036832      -0.008693       0.000912
  14       0.129314       0.019594       0.017664
  15      -0.004270      -0.012966      -0.001531
  16       0.058006       0.004129      -0.006659
  17      -0.005248       0.004236       0.001972
  18      -0.050086       0.002784       0.001759
  19       0.017064       0.016437       0.001552
  20      -0.001023      -0.003343      -0.015407
  21      -0.073351      -0.030391       0.013295
  22      -0.003329       0.006956      -0.000680
  23       0.003854       0.002824      -0.000323
  24       0.003665      -0.002986       0.000236
  25      -0.003696      -0.006821       0.000703
  26       0.004916      -0.004321      -0.000655
  27      -0.005143       0.004832       0.004267
  28      -0.003110      -0.001222       0.000322
  29       0.011447       0.003095      -0.037734
  30      -0.011150      -0.016476       0.034452
  31       0.006965      -0.008376      -0.013669
---------------------------------------------------
Number of fixed atoms: 0
 Gradient time:  CPU 309.48 s  wall 163.17 s
 Geometry Optimization Parameters
   NAtoms,    NIC,     NZ,  NCons,   NDum,   NFix, NCnnct, MaxDiis
       31     249       0       0       0       0       0       0


** GEOMETRY OPTIMIZATION IN DELOCALIZED INTERNAL COORDINATES **
   Searching for a Minimum

   Optimization Cycle:   1

                       Coordinates (Angstroms)
     ATOM                X               Y               Z
      1  Ni       -0.5216600000    1.6100000000   -0.0058100000
      2  N        -1.8900400000    2.8960200000   -0.0058000000
      3  N        -1.9520700000    0.4022900000   -0.0122600000
      4  N         0.8086300000    2.8763500000    0.0021300000
      5  N         0.7548600000    0.2986100000   -0.0130000000
      6  C        -3.1853400000    2.3630000000   -0.0329600000
      7  H        -1.7561100000    3.9130900000   -0.1245500000
      8  C        -3.2182400000    0.9973500000    0.0289200000
      9  H        -1.8645600000   -0.6198400000    0.1092100000
     10  C        -4.4293600000    0.3019600000    0.0901800000
     11  C        -5.6234000000    1.0340300000    0.0576900000
     12  C        -5.5899400000    2.4418600000   -0.0352300000
     13  C        -4.3623900000    3.1154800000   -0.0809000000
     14  C         2.0861600000    2.3051700000    0.0554200000
     15  H         0.7173000000    3.8687100000    0.1282400000
     16  C         2.0510300000    0.8345200000   -0.0618900000
     17  H         0.6103200000   -0.6945700000   -0.1417500000
     18  C         3.1838200000    0.1092200000   -0.0972100000
     19  C         4.4767300000    0.8161700000   -0.0613400000
     20  C         4.5106400000    2.1526500000    0.0414900000
     21  C         3.2751200000    2.9559600000    0.3209100000
     22  H        -4.3474900000    4.2095800000   -0.1464500000
     23  H        -6.5725000000    0.5214500000    0.0965700000
     24  H        -6.5136100000    2.9996400000   -0.0638600000
     25  H        -4.4665300000   -0.7915800000    0.1561800000
     26  H         3.2021800000   -0.9813100000   -0.1579800000
     27  H         5.3853600000    0.2392500000   -0.0842800000
     28  H         5.4440400000    2.6964800000    0.0937800000
     29  H         3.4374200000    3.8463900000   -0.3818300000
     30  O         3.2060700000    3.1231400000    1.8465000000
     31  O         2.9428100000    4.5113000000    2.0591600000
   Point Group: c1    Number of degrees of freedom:    87


   Energy is  -2342.008663691


 Attempting to Generate Delocalized Internal Coordinates

 87 Hessian modes will be used to form the next step
  Hessian Eigenvalues:
     0.002000    0.004079    0.005574    0.006365    0.006758    0.007088
     0.007153    0.014088    0.015429    0.018557    0.018941    0.019135
     0.019481    0.020439    0.021096    0.021416    0.021707    0.021774
     0.022377    0.022489    0.022499    0.022503    0.023978    0.025125
     0.063515    0.074557    0.081436    0.087031    0.115641    0.151949
     0.155169    0.155656    0.156105    0.157121    0.159597    0.159903
     0.159993    0.159996    0.159996    0.159997    0.159997    0.201124
     0.209877    0.209940    0.212609    0.217921    0.219998    0.220831
     0.226180    0.232807    0.233996    0.237370    0.239401    0.241763
     0.242595    0.246738    0.250000    0.288514    0.290779    0.313957
     0.325348    0.341100    0.341103    0.345293    0.345395    0.358093
     0.360669    0.360705    0.364137    0.405457    0.411597    0.415386
     0.423217    0.423591    0.423720    0.425535    0.442018    0.447124
     0.449742    0.456613    0.457335    0.457614    0.469056    0.471271
     0.481251    0.533461    0.557898

 Minimum Search - Taking Simple RFO Step
 Searching for Lamda that Minimizes Along All modes
 Value Taken    Lamda =  -0.06968810
 Calculated Step too Large.  Step scaled by  0.663100
 Step Taken.  Stepsize is  0.300000

                             Maximum     Tolerance    Cnvgd?
         Gradient           0.058518      0.000005      NO
         Displacement       0.131166      0.000010      NO
         Energy change     *********      0.000000      NO


 New Cartesian Coordinates Obtained by Inverse Iteration

 Displacement from previous Coordinates is:  0.342715
 ----------------------------------------------------------------
             Standard Nuclear Orientation (Angstroms)
    I     Atom           X                Y                Z
 ----------------------------------------------------------------
    1      Ni     -0.5362705422     1.5904261167    -0.0048392105
    2      N      -1.8876016615     2.8687718854    -0.0051437620
    3      N      -1.9645091153     0.3972412217    -0.0106808364
    4      N       0.8220712435     2.8323068855     0.0022791319
    5      N       0.7397603792     0.3018808864    -0.0137606345
    6      C      -3.1625001957     2.3719013015    -0.0322586840
    7      H      -1.7640966155     3.8788337142    -0.1203171631
    8      C      -3.2050822627     0.9712903330     0.0289575293
    9      H      -1.8973670882    -0.6175428916     0.1087619147
   10      C      -4.4361337145     0.2884731302     0.0882676971
   11      C      -5.6077086098     1.0369875340     0.0560124152
   12      C      -5.5647841564     2.4559289189    -0.0346201141
   13      C      -4.3494720746     3.1298522502    -0.0789481329
   14      C       2.0558920793     2.2829171546     0.0507097819
   15      H       0.7549284180     3.8350452366     0.1271835970
   16      C       2.0235151817     0.8225968428    -0.0603969234
   17      H       0.6118673799    -0.6956118506    -0.1459396441
   18      C       3.1861533727     0.1110040177    -0.1005262517
   19      C       4.4715811862     0.8129465436    -0.0651546036
   20      C       4.5172602285     2.1572450953     0.0458122948
   21      C       3.2818540396     2.9730645403     0.3147051149
   22      H      -4.3261886117     4.2180475324    -0.1414857970
   23      H      -6.5656007923     0.5325843679     0.0936649758
   24      H      -6.4900253956     3.0185374310    -0.0623718701
   25      H      -4.4800128814    -0.7990103570     0.1514645278
   26      H       3.1993453208    -0.9756468928    -0.1648317148
   27      H       5.3797181641     0.2255400751    -0.1035708957
   28      H       5.4576708795     2.6948712930     0.0920289418
   29      H       3.4075875884     3.8769081157    -0.3336716320
   30      O       3.2282947664     3.1906505703     1.8166037196
   31      O       2.8991034897     4.5643289978     2.0813462280
 ----------------------------------------------------------------
 Nuclear Repulsion Energy =  1777.0331170149 hartrees
 There are       78 alpha and       78 beta electrons
No default van der Waals radius is available for Z = 28
	Found R = 1.6300 A in the $van_der_waals section
Discretize the solute cavity surface with Lebedev spheres
	Using 194 Lebedev grid points for each H atom
	Using 194 Lebedev grid points for other atoms
	Atomic van der Waals radii will be scaled by 1.20
 Serial switch compute.
 Remove points where switching function is < 1.0e-08
 Keep 2601 surface tesserae and discard 3413 interior tesserae
 Molecular Surface Area = 296.014 Angst**2
 Applying Cartesian multipole field
    Component          Value
    ---------          -----
     (2,0,0)        1.00000E-12
     (0,2,0)        2.00000E-11
     (0,0,2)       -3.00000E-11
 Nucleus-field energy     =     0.0000000545 hartrees
 Requested basis set is 6-31+G(d)
 There are 122 shells and 402 basis functions
 A cutoff of  1.0D-12 yielded   5499 shell pairs
 There are     63976 function pairs (     64984 Cartesian)
 Smallest overlap matrix eigenvalue = 9.32E-07
 Linear dependence detected in AO basis
 Number of orthogonalized atomic orbitals = 401
 Maximum deviation from orthogonality = 1.423E-10
 Guess MOs from SCF MO coefficient file
 Reading MOs from coefficient file
 Reading MOs from coefficient file
 A restricted hybrid HF-DFT SCF calculation will be
 performed using Pulay DIIS extrapolation
 Polarizable Continuum solvation model will be applied
 Exchange:     0.2000 Hartree-Fock + 0.0800 Slater + 0.7200 B88
 Correlation:  0.1900 VWN1RPA + 0.8100 LYP
 Using Euler-Maclaurin-Lebedev (75,302) quadrature formula
 SCF converges when DIIS error is below 1.0E-08
 Geometry optimization detected.  Setting ReadMinima to 0
 Setting SaveMinima to 0
 using 2 threads for integral computing 
 -------------------------------------------------------
 OpenMP BLAS3 based DFT computing Module                
 Release: version 1.0, May 2013, Q-Chem Inc. Pittsburgh 
 -------------------------------------------------------
 ---------------------------------------
  Cycle       Energy         DIIS Error
 ---------------------------------------
    1   -2342.0511936586      2.69E-03
    2   -2340.8332517741      6.24E-03
    3   -2341.8310091212      3.87E-03
    4   -2341.8516778448      3.99E-03
    5   -2342.0181283643      1.30E-03
    6   -2342.0316155577      8.58E-04
    7   -2342.0439601687      2.55E-04
    8   -2342.0445449125      1.66E-04
    9   -2342.0450893535      6.36E-05
   10   -2342.0451642718      2.12E-05
   11   -2342.0451709026      7.12E-06
   12   -2342.0451718414      3.56E-06
   13   -2342.0451721570      1.93E-06
   14   -2342.0451722828      1.23E-06
   15   -2342.0451723371      6.80E-07
   16   -2342.0451723685      2.83E-07
   17   -2342.0451723769      1.52E-07
   18   -2342.0451723780      7.19E-08
   19   -2342.0451723781      2.47E-08
   20   -2342.0451723782      1.14E-08
   21   -2342.0451723782      5.42E-09 Convergence criterion met
 ---------------------------------------

************** Final PCM Free Energy Summary **************
 G_electrostatic  =      -0.08012105 hartree =     -50.27671885 kcal/mol
 G_cavitation     =       0.00000000 hartree =       0.00000000 kcal/mol
 G_dispersion     =       0.00000000 hartree =       0.00000000 kcal/mol
 G_repulsion      =       0.00000000 hartree =       0.00000000 kcal/mol
 --------------------------------------------------
 Non-electrostatic Free Energy =       0.00000000 hartree =       0.00000000 kcal/mol
 Total                         =      -0.08012105 hartree =     -50.27671885 kcal/mol
 --------------------------------------------------
 SCF Energy (H0 + V/2)                       =   -2342.04517238 
 Solute Internal Energy (H0)                 =   -2341.96505133 
 Total Free Energy (H0 + V/2 + non-elec)     =   -2342.04517238 hartree
                                             = -1469655.52717712 kcal/mol
***********************************************************

 SCF time:  CPU 1247.50 s  wall 670.36 s
 SCF   energy in the final basis set = -2342.0451723782
 Total energy in the final basis set = -2342.0451723782
 
 --------------------------------------------------------------
 
                    Orbital Energies (a.u.)
 --------------------------------------------------------------
 
 Alpha MOs
 -- Occupied --
******* -35.869 -31.310 -31.300 -31.277 -19.195 -19.110 -14.380
-14.376 -14.372 -14.357 -10.271 -10.256 -10.255 -10.254 -10.250
-10.226 -10.216 -10.215 -10.213 -10.212 -10.212 -10.212  -4.063
 -2.673  -2.655  -2.616  -1.051  -0.961  -0.954  -0.893  -0.890
 -0.854  -0.849  -0.794  -0.756  -0.738  -0.729  -0.720  -0.648
 -0.643  -0.609  -0.602  -0.553  -0.544  -0.524  -0.515  -0.510
 -0.496  -0.474  -0.464  -0.456  -0.452  -0.452  -0.434  -0.432
 -0.426  -0.411  -0.402  -0.391  -0.379  -0.373  -0.360  -0.357
 -0.353  -0.344  -0.340  -0.337  -0.328  -0.324  -0.312  -0.275
 -0.269  -0.267  -0.234  -0.216  -0.210  -0.182
 -- Virtual --
 -0.148  -0.099  -0.054  -0.019  -0.001   0.002   0.004   0.014
  0.017   0.021   0.031   0.035   0.041   0.043   0.045   0.052
  0.054   0.059   0.065   0.069   0.069   0.075   0.082   0.087
  0.092   0.094   0.103   0.105   0.113   0.117   0.118   0.125
  0.127   0.130   0.135   0.138   0.147   0.149   0.150   0.154
  0.161   0.166   0.169   0.170   0.174   0.177   0.179   0.182
  0.186   0.192   0.195   0.197   0.203   0.205   0.209   0.210
  0.212   0.221   0.222   0.224   0.229   0.230   0.231   0.236
  0.239   0.243   0.245   0.249   0.250   0.253   0.259   0.259
  0.264   0.265   0.269   0.275   0.280   0.284   0.287   0.291
  0.296   0.299   0.308   0.312   0.316   0.323   0.325   0.328
  0.332   0.340   0.344   0.350   0.351   0.360   0.371   0.376
  0.387   0.389   0.398   0.403   0.407   0.418   0.428   0.431
  0.436   0.445   0.463   0.473   0.487   0.501   0.520   0.560
  0.575   0.583   0.611   0.635   0.650   0.655   0.662   0.688
  0.693   0.703   0.708   0.712   0.722   0.723   0.730   0.741
  0.743   0.744   0.756   0.758   0.768   0.769   0.783   0.804
  0.825   0.840   0.849   0.873   0.876   0.887   0.906   0.907
  0.925   0.936   0.943   0.950   0.954   0.964   0.969   0.981
  0.987   0.989   1.000   1.009   1.031   1.038   1.052   1.053
  1.078   1.081   1.090   1.092   1.098   1.114   1.136   1.139
  1.145   1.166   1.176   1.182   1.192   1.208   1.218   1.231
  1.234   1.241   1.252   1.256   1.270   1.290   1.297   1.312
  1.320   1.329   1.352   1.361   1.362   1.366   1.379   1.392
  1.395   1.413   1.418   1.427   1.439   1.455   1.461   1.470
  1.480   1.492   1.499   1.525   1.529   1.549   1.567   1.618
  1.632   1.637   1.659   1.666   1.675   1.707   1.719   1.725
  1.768   1.783   1.808   1.814   1.830   1.841   1.861   1.867
  1.876   1.885   1.894   1.904   1.914   1.925   1.942   1.967
  1.970   1.971   1.973   1.978   2.008   2.011   2.018   2.043
  2.052   2.064   2.079   2.090   2.110   2.114   2.141   2.157
  2.169   2.173   2.189   2.201   2.214   2.227   2.253   2.265
  2.271   2.279   2.287   2.300   2.312   2.325   2.378   2.389
  2.401   2.443   2.457   2.478   2.495   2.508   2.518   2.556
  2.568   2.580   2.595   2.620   2.623   2.632   2.656   2.671
  2.674   2.695   2.715   2.725   2.732   2.785   2.817   2.829
  2.839   2.865   2.891   2.907   2.936   2.986   2.999   3.015
  3.042   3.172   3.203   3.225   3.235   3.285   3.353   3.426
  3.996   4.119   4.209   4.240   4.269   4.289   4.294   4.315
  4.351   4.356   4.424   4.430   4.448   4.458   4.491   4.611
  4.770   4.785  33.019
 --------------------------------------------------------------
 
          Ground-State Mulliken Net Atomic Charges

     Atom                 Charge (a.u.)
  ----------------------------------------
      1 Ni                    0.347258
      2 N                    -0.700779
      3 N                    -0.686104
      4 N                    -0.610647
      5 N                    -0.694477
      6 C                     1.042922
      7 H                     0.454470
      8 C                     1.021279
      9 H                     0.451927
     10 C                    -0.918326
     11 C                    -0.219119
     12 C                    -0.209814
     13 C                    -0.999336
     14 C                     1.592904
     15 H                     0.463678
     16 C                     1.469068
     17 H                     0.451234
     18 C                    -2.085545
     19 C                    -0.076291
     20 C                    -0.318904
     21 C                    -0.721570
     22 H                     0.230913
     23 H                     0.224298
     24 H                     0.223736
     25 H                     0.230196
     26 H                     0.241726
     27 H                     0.223111
     28 H                     0.226291
     29 H                     0.249123
     30 O                    -0.121330
     31 O                    -0.781893
  ----------------------------------------
  Sum of atomic charges =    -0.000000

 -----------------------------------------------------------------
                    Cartesian Multipole Moments
 -----------------------------------------------------------------
    Charge (ESU x 10^10)
                -0.0000
    Dipole Moment (Debye)
         X     -12.3711      Y     -10.4729      Z      -9.7165
       Tot      18.8980
    Quadrupole Moments (Debye-Ang)
        XX     -93.3703     XY     -53.0358     YY    -152.1991
        XZ     -29.1708     YZ     -41.6343     ZZ    -146.4395
    Octopole Moments (Debye-Ang^2)
       XXX    -130.3317    XXY    -277.4092    XYY    -228.4086
       YYY    -843.8037    XXZ    -112.9713    XYZ    -117.0382
       YYZ    -209.2483    XZZ     -34.1571    YZZ    -319.1080
       ZZZ    -122.9662
    Hexadecapole Moments (Debye-Ang^3)
      XXXX   -6401.4884   XXXY    -728.6083   XXYY   -2213.9590
      XYYY   -1255.0110   YYYY   -4665.4716   XXXZ    -512.2879
      XXYZ    -485.3913   XYYZ    -598.3167   YYYZ   -1125.0255
      XXZZ   -1716.2702   XYZZ    -277.2234   YYZZ   -1118.0189
      XZZZ    -367.6997   YZZZ    -506.0545   ZZZZ    -554.3552
 -----------------------------------------------------------------
 Calculating analytic gradient of the SCF energy
 Gradient of SCF Energy
            1           2           3           4           5           6
    1   0.0193333   0.0159398   0.0154402  -0.0365223  -0.0030919  -0.0268147
    2   0.0018046   0.0116049  -0.0031442   0.0296369  -0.0132646  -0.0796705
    3  -0.0053836   0.0092051  -0.0049278   0.0029359   0.0067548  -0.0032703
            7           8           9          10          11          12
    1   0.0055403  -0.0366682   0.0058153   0.0297576  -0.0159821  -0.0146922
    2   0.0179531   0.0816743  -0.0233288  -0.0022233   0.0172849  -0.0154161
    3  -0.0047775   0.0020047   0.0027476  -0.0020145   0.0005850  -0.0000743
           13          14          15          16          17          18
    1   0.0303015   0.0647104  -0.0069076   0.0290978  -0.0071397  -0.0223660
    2   0.0010006  -0.0041294  -0.0050412   0.0211442  -0.0146083   0.0066290
    3   0.0017713   0.0014305  -0.0060243  -0.0170676  -0.0015016   0.0005465
           19          20          21          22          23          24
    1   0.0120873  -0.0051061  -0.0373267  -0.0025160  -0.0083048  -0.0075628
    2   0.0136366   0.0018627  -0.0105869   0.0150275  -0.0047838   0.0047672
    3   0.0010939  -0.0096514   0.0214389  -0.0013293   0.0001981  -0.0003103
           25          26          27          28          29          30
    1  -0.0034064   0.0033395   0.0013904  -0.0029978   0.0066330  -0.0079444
    2  -0.0169880  -0.0124871  -0.0018349  -0.0029753  -0.0055332  -0.0172371
    3   0.0011340  -0.0015061   0.0025649  -0.0017062  -0.0240425   0.0239529
           31
    1   0.0059635
    2   0.0092262
    3   0.0052234
 Max gradient component =       8.167E-02
 RMS gradient           =       1.919E-02
 Computing fast CPCM-SWIG gradient.
Updating gradient with PCM contributions...
 -- total gradient after adding PCM contribution --
---------------------------------------------------
  Atom         X              Y              Z     
---------------------------------------------------
   1       0.026589       0.001002      -0.000203
   2       0.014721       0.018635       0.003636
   3       0.014980      -0.014697      -0.003285
   4      -0.046949       0.029459      -0.001556
   5      -0.010368      -0.027164       0.000941
   6      -0.037990      -0.049015       0.000165
   7       0.004296       0.003859      -0.001527
   8      -0.035840       0.050825       0.000127
   9       0.003929      -0.004465       0.001243
  10       0.025072       0.000747      -0.000780
  11      -0.012279       0.012167      -0.000537
  12      -0.012620      -0.011674       0.000721
  13       0.024929      -0.002294       0.000633
  14       0.071006       0.006876       0.010498
  15      -0.001177      -0.006093      -0.000218
  16       0.027290       0.010266      -0.005384
  17      -0.003102       0.002061       0.001243
  18      -0.027661      -0.002106       0.001383
  19       0.012269       0.006737       0.000727
  20       0.000138      -0.000202      -0.011770
  21      -0.039370      -0.013175       0.003789
  22      -0.002594       0.002979      -0.000372
  23       0.001954       0.000775      -0.000137
  24       0.001886      -0.000836       0.000076
  25      -0.002747      -0.002825       0.000383
  26       0.003534      -0.001439      -0.000405
  27      -0.002155       0.001928       0.003366
  28      -0.001463      -0.000181       0.000152
  29       0.008096       0.000011      -0.024078
  30      -0.010398      -0.006621       0.025563
  31       0.006024      -0.005539      -0.004397
---------------------------------------------------
Number of fixed atoms: 0
 Gradient time:  CPU 313.73 s  wall 165.82 s
 Geometry Optimization Parameters
   NAtoms,    NIC,     NZ,  NCons,   NDum,   NFix, NCnnct, MaxDiis
       31     249       0       0       0       0       0       0

 Cartesian Hessian Update
 Hessian Updated using BFGS Update


** GEOMETRY OPTIMIZATION IN DELOCALIZED INTERNAL COORDINATES **
   Searching for a Minimum

   Optimization Cycle:   2

                       Coordinates (Angstroms)
     ATOM                X               Y               Z
      1  Ni       -0.5362705422    1.5904261167   -0.0048392105
      2  N        -1.8876016615    2.8687718854   -0.0051437620
      3  N        -1.9645091153    0.3972412217   -0.0106808364
      4  N         0.8220712435    2.8323068855    0.0022791319
      5  N         0.7397603792    0.3018808864   -0.0137606345
      6  C        -3.1625001957    2.3719013015   -0.0322586840
      7  H        -1.7640966155    3.8788337142   -0.1203171631
      8  C        -3.2050822627    0.9712903330    0.0289575293
      9  H        -1.8973670882   -0.6175428916    0.1087619147
     10  C        -4.4361337145    0.2884731302    0.0882676971
     11  C        -5.6077086098    1.0369875340    0.0560124152
     12  C        -5.5647841564    2.4559289189   -0.0346201141
     13  C        -4.3494720746    3.1298522502   -0.0789481329
     14  C         2.0558920793    2.2829171546    0.0507097819
     15  H         0.7549284180    3.8350452366    0.1271835970
     16  C         2.0235151817    0.8225968428   -0.0603969234
     17  H         0.6118673799   -0.6956118506   -0.1459396441
     18  C         3.1861533727    0.1110040177   -0.1005262517
     19  C         4.4715811862    0.8129465436   -0.0651546036
     20  C         4.5172602285    2.1572450953    0.0458122948
     21  C         3.2818540396    2.9730645403    0.3147051149
     22  H        -4.3261886117    4.2180475324   -0.1414857970
     23  H        -6.5656007923    0.5325843679    0.0936649758
     24  H        -6.4900253956    3.0185374310   -0.0623718701
     25  H        -4.4800128814   -0.7990103570    0.1514645278
     26  H         3.1993453208   -0.9756468928   -0.1648317148
     27  H         5.3797181641    0.2255400751   -0.1035708957
     28  H         5.4576708795    2.6948712930    0.0920289418
     29  H         3.4075875884    3.8769081157   -0.3336716320
     30  O         3.2282947664    3.1906505703    1.8166037196
     31  O         2.8991034897    4.5643289978    2.0813462280
   Point Group: c1    Number of degrees of freedom:    87


   Energy is  -2342.045172378

 Hessian Updated using BFGS Update

 87 Hessian modes will be used to form the next step
  Hessian Eigenvalues:
     0.002008    0.004079    0.005574    0.006365    0.006758    0.007087
     0.007154    0.014087    0.015431    0.018564    0.018947    0.019137
     0.019483    0.020439    0.021096    0.021416    0.021707    0.021774
     0.022377    0.022489    0.022499    0.022503    0.023979    0.025121
     0.064011    0.073927    0.079608    0.087029    0.115639    0.151108
     0.154685    0.155695    0.156184    0.157631    0.158846    0.159689
     0.159919    0.159996    0.159996    0.159997    0.160227    0.197338
     0.205777    0.209904    0.211697    0.217593    0.219996    0.220774
     0.226141    0.226562    0.232987    0.236242    0.239821    0.241517
     0.241789    0.246738    0.265011    0.272273    0.294566    0.315418
     0.326071    0.341102    0.341522    0.342116    0.345697    0.358160
     0.360686    0.360920    0.364463    0.382546    0.407968    0.413270
     0.415394    0.423437    0.424720    0.425599    0.425841    0.442719
     0.448762    0.456633    0.457261    0.457356    0.469114    0.474145
     0.478830    0.534702    0.564380

 Minimum Search - Taking Simple RFO Step
 Searching for Lamda that Minimizes Along All modes
 Value Taken    Lamda =  -0.03719951
 Calculated Step too Large.  Step scaled by  0.670205
 Step Taken.  Stepsize is  0.300000

                             Maximum     Tolerance    Cnvgd?
         Gradient           0.033819      0.000005      NO
         Displacement       0.127289      0.000010      NO
         Energy change     -0.036509      0.000000      NO


 New Cartesian Coordinates Obtained by Inverse Iteration

 Displacement from previous Coordinates is:  0.381059
 ----------------------------------------------------------------
             Standard Nuclear Orientation (Angstroms)
    I     Atom           X                Y                Z
 ----------------------------------------------------------------
    1      Ni     -0.5505789458     1.5762748058     0.0039132306
    2      N      -1.8889550967     2.8476711350     0.0052489290
    3      N      -1.9782167983     0.3949295375    -0.0094037399
    4      N       0.8432108791     2.7948810707     0.0204111096
    5      N       0.7353068959     0.3048285849    -0.0110306391
    6      C      -3.1409768916     2.3819747660    -0.0260544682
    7      H      -1.7705644693     3.8561252580    -0.0976217138
    8      C      -3.1920152435     0.9503019427     0.0278594948
    9      H      -1.9250844938    -0.6179677918     0.0995214777
   10      C      -4.4448318621     0.2816233273     0.0800663003
   11      C      -5.5954517672     1.0407406503     0.0485245297
   12      C      -5.5444901182     2.4699546694    -0.0341662530
   13      C      -4.3412822285     3.1414764393    -0.0717276312
   14      C       2.0375022585     2.2583623901     0.0588534937
   15      H       0.7905131368     3.8036712409     0.1469936453
   16      C       2.0111888360     0.8029496686    -0.0509038216
   17      H       0.6188035174    -0.6945628907    -0.1520203838
   18      C       3.1951123294     0.1079073340    -0.1015366147
   19      C       4.4665396300     0.8124588807    -0.0655927054
   20      C       4.5224316722     2.1592685120     0.0594853365
   21      C       3.2892323121     2.9781288636     0.3212582295
   22      H      -4.3073452654     4.2267543454    -0.1272071829
   23      H      -6.5617491718     0.5474916122     0.0805877090
   24      H      -6.4725012005     3.0320867305    -0.0606966584
   25      H      -4.4914592203    -0.8030816335     0.1363102274
   26      H       3.2030208886    -0.9769371730    -0.1765465383
   27      H       5.3755021467     0.2229013385    -0.1272245272
   28      H       5.4680856934     2.6908773045     0.0984659512
   29      H       3.3648847983     3.8968801777    -0.2763929869
   30      O       3.2554132966     3.2505933235     1.7783443742
   31      O       2.8280044818     4.6138055798     2.0015618258
 ----------------------------------------------------------------
 Nuclear Repulsion Energy =  1780.3062068564 hartrees
 There are       78 alpha and       78 beta electrons
No default van der Waals radius is available for Z = 28
	Found R = 1.6300 A in the $van_der_waals section
Discretize the solute cavity surface with Lebedev spheres
	Using 194 Lebedev grid points for each H atom
	Using 194 Lebedev grid points for other atoms
	Atomic van der Waals radii will be scaled by 1.20
 Serial switch compute.
 Remove points where switching function is < 1.0e-08
 Keep 2581 surface tesserae and discard 3433 interior tesserae
 Molecular Surface Area = 295.049 Angst**2
 Applying Cartesian multipole field
    Component          Value
    ---------          -----
     (2,0,0)        1.00000E-12
     (0,2,0)        2.00000E-11
     (0,0,2)       -3.00000E-11
 Nucleus-field energy     =     0.0000000551 hartrees
 Requested basis set is 6-31+G(d)
 There are 122 shells and 402 basis functions
 A cutoff of  1.0D-12 yielded   5511 shell pairs
 There are     64067 function pairs (     65075 Cartesian)
 Smallest overlap matrix eigenvalue = 1.03E-06
 No. of orbitals has changed due to linear dependencies.  Generating new SCF guess.
 Guess from superposition of atomic densities
 Warning:  Energy on first SCF cycle will be non-variational
 A restricted hybrid HF-DFT SCF calculation will be
 performed using Pulay DIIS extrapolation
 Polarizable Continuum solvation model will be applied
 Exchange:     0.2000 Hartree-Fock + 0.0800 Slater + 0.7200 B88
 Correlation:  0.1900 VWN1RPA + 0.8100 LYP
 Using Euler-Maclaurin-Lebedev (75,302) quadrature formula
 SCF converges when DIIS error is below 1.0E-08
 Geometry optimization detected.  Setting ReadMinima to 0
 Setting SaveMinima to 0
 using 2 threads for integral computing 
 -------------------------------------------------------
 OpenMP BLAS3 based DFT computing Module                
 Release: version 1.0, May 2013, Q-Chem Inc. Pittsburgh 
 -------------------------------------------------------
 ---------------------------------------
  Cycle       Energy         DIIS Error
 ---------------------------------------
    1   -2346.1878082958      3.69E-02
    2   -2341.7753091636      3.77E-03
    3   -2339.9878841385      9.00E-03
    4   -2341.7128809172      4.69E-03
    5   -2341.9350371392      3.11E-03
    6   -2341.9927332322      2.54E-03
    7   -2342.0549244338      6.83E-04
    8   -2342.0621372863      2.42E-04
    9   -2342.0627644011      1.58E-04
   10   -2342.0632320763      6.12E-05
   11   -2342.0632909621      2.48E-05
   12   -2342.0633078154      9.66E-06
   13   -2342.0633127842      5.34E-06
   14   -2342.0633136644      1.86E-06
   15   -2342.0633137487      1.12E-06
   16   -2342.0633137761      3.61E-07
   17   -2342.0633137787      1.59E-07
   18   -2342.0633137791      7.09E-08
   19   -2342.0633137792      3.11E-08
   20   -2342.0633137793      1.54E-08
   21   -2342.0633137793      9.58E-09 Convergence criterion met
 ---------------------------------------

************** Final PCM Free Energy Summary **************
 G_electrostatic  =      -0.08446633 hartree =     -53.00342277 kcal/mol
 G_cavitation     =       0.00000000 hartree =       0.00000000 kcal/mol
 G_dispersion     =       0.00000000 hartree =       0.00000000 kcal/mol
 G_repulsion      =       0.00000000 hartree =       0.00000000 kcal/mol
 --------------------------------------------------
 Non-electrostatic Free Energy =       0.00000000 hartree =       0.00000000 kcal/mol
 Total                         =      -0.08446633 hartree =     -53.00342277 kcal/mol
 --------------------------------------------------
 SCF Energy (H0 + V/2)                       =   -2342.06331378 
 Solute Internal Energy (H0)                 =   -2341.97884745 
 Total Free Energy (H0 + V/2 + non-elec)     =   -2342.06331378 hartree
                                             = -1469666.91107818 kcal/mol
***********************************************************

 SCF time:  CPU 1220.17 s  wall 657.27 s
 SCF   energy in the final basis set = -2342.0633137793
 Total energy in the final basis set = -2342.0633137793
 
 --------------------------------------------------------------
 
                    Orbital Energies (a.u.)
 --------------------------------------------------------------
 
 Alpha MOs
 -- Occupied --
******* -35.866 -31.308 -31.298 -31.274 -19.187 -19.105 -14.379
-14.378 -14.375 -14.353 -10.267 -10.260 -10.259 -10.252 -10.246
-10.220 -10.219 -10.217 -10.214 -10.213 -10.211 -10.208  -4.061
 -2.671  -2.655  -2.613  -1.049  -0.972  -0.963  -0.905  -0.896
 -0.852  -0.849  -0.794  -0.760  -0.733  -0.725  -0.714  -0.649
 -0.644  -0.608  -0.600  -0.553  -0.545  -0.529  -0.519  -0.515
 -0.496  -0.472  -0.463  -0.456  -0.454  -0.451  -0.438  -0.436
 -0.426  -0.414  -0.403  -0.392  -0.380  -0.373  -0.362  -0.358
 -0.352  -0.343  -0.341  -0.338  -0.325  -0.324  -0.313  -0.276
 -0.270  -0.266  -0.237  -0.214  -0.206  -0.180
 -- Virtual --
 -0.144  -0.094  -0.053  -0.017  -0.002   0.003   0.009   0.014
  0.016   0.022   0.031   0.037   0.041   0.043   0.046   0.052
  0.055   0.060   0.064   0.069   0.070   0.078   0.082   0.087
  0.091   0.094   0.102   0.105   0.112   0.115   0.118   0.127
  0.128   0.130   0.134   0.138   0.146   0.149   0.152   0.157
  0.162   0.167   0.170   0.173   0.174   0.178   0.183   0.184
  0.185   0.190   0.194   0.197   0.202   0.204   0.210   0.211
  0.213   0.218   0.223   0.224   0.227   0.227   0.232   0.236
  0.243   0.244   0.246   0.248   0.252   0.253   0.256   0.259
  0.263   0.270   0.270   0.272   0.277   0.284   0.289   0.292
  0.292   0.299   0.308   0.310   0.315   0.321   0.324   0.327
  0.331   0.336   0.339   0.349   0.350   0.355   0.364   0.371
  0.381   0.392   0.397   0.401   0.408   0.417   0.422   0.431
  0.438   0.449   0.460   0.472   0.476   0.489   0.522   0.529
  0.564   0.568   0.583   0.610   0.637   0.648   0.655   0.667
  0.686   0.692   0.701   0.711   0.716   0.723   0.725   0.733
  0.739   0.744   0.753   0.757   0.759   0.770   0.772   0.788
  0.807   0.828   0.846   0.851   0.876   0.879   0.890   0.909
  0.914   0.929   0.940   0.946   0.952   0.955   0.965   0.970
  0.982   0.986   0.991   1.000   1.011   1.033   1.040   1.052
  1.056   1.070   1.080   1.092   1.094   1.099   1.132   1.140
  1.145   1.157   1.166   1.180   1.184   1.191   1.215   1.228
  1.236   1.239   1.241   1.251   1.261   1.275   1.291   1.297
  1.313   1.324   1.329   1.353   1.359   1.363   1.372   1.385
  1.394   1.402   1.411   1.418   1.423   1.442   1.455   1.463
  1.470   1.484   1.497   1.504   1.521   1.533   1.549   1.563
  1.617   1.631   1.638   1.659   1.661   1.681   1.716   1.723
  1.737   1.768   1.785   1.807   1.812   1.829   1.839   1.861
  1.869   1.883   1.895   1.909   1.920   1.922   1.936   1.950
  1.970   1.973   1.982   1.989   1.993   2.011   2.013   2.031
  2.059   2.063   2.072   2.083   2.106   2.108   2.120   2.143
  2.157   2.173   2.179   2.192   2.197   2.225   2.241   2.256
  2.269   2.272   2.283   2.293   2.311   2.313   2.345   2.368
  2.388   2.415   2.447   2.467   2.489   2.495   2.507   2.531
  2.564   2.584   2.590   2.606   2.617   2.624   2.636   2.662
  2.672   2.676   2.698   2.719   2.730   2.746   2.800   2.828
  2.832   2.844   2.877   2.908   2.926   2.951   2.988   3.000
  3.020   3.049   3.168   3.207   3.236   3.255   3.304   3.364
  3.415   4.009   4.128   4.216   4.239   4.283   4.286   4.313
  4.320   4.354   4.382   4.432   4.446   4.456   4.469   4.496
  4.615   4.768   4.790  33.043
 --------------------------------------------------------------
 
          Ground-State Mulliken Net Atomic Charges

     Atom                 Charge (a.u.)
  ----------------------------------------
      1 Ni                    0.523360
      2 N                    -0.659104
      3 N                    -0.632491
      4 N                    -0.631545
      5 N                    -0.734826
      6 C                     2.077171
      7 H                     0.460174
      8 C                     2.023863
      9 H                     0.458408
     10 C                    -1.926817
     11 C                    -0.343709
     12 C                    -0.358589
     13 C                    -1.893872
     14 C                     1.575356
     15 H                     0.464854
     16 C                     1.473146
     17 H                     0.447115
     18 C                    -2.013350
     19 C                    -0.129970
     20 C                    -0.319122
     21 C                    -0.749571
     22 H                     0.235050
     23 H                     0.226188
     24 H                     0.225728
     25 H                     0.234559
     26 H                     0.234033
     27 H                     0.220343
     28 H                     0.222683
     29 H                     0.238969
     30 O                    -0.143460
     31 O                    -0.804577
  ----------------------------------------
  Sum of atomic charges =    -0.000000

 -----------------------------------------------------------------
                    Cartesian Multipole Moments
 -----------------------------------------------------------------
    Charge (ESU x 10^10)
                -0.0000
    Dipole Moment (Debye)
         X     -14.3732      Y     -10.9123      Z      -9.7243
       Tot      20.4995
    Quadrupole Moments (Debye-Ang)
        XX     -93.1724     XY     -57.2099     YY    -156.1737
        XZ     -28.7690     YZ     -41.7599     ZZ    -145.6787
    Octopole Moments (Debye-Ang^2)
       XXX    -163.0202    XXY    -278.9789    XYY    -246.5647
       YYY    -868.7443    XXZ    -111.0231    XYZ    -116.2462
       YYZ    -211.7238    XZZ     -33.9741    YZZ    -317.3762
       ZZZ    -120.5644
    Hexadecapole Moments (Debye-Ang^3)
      XXXX   -6351.1624   XXXY    -787.7635   XXYY   -2231.1405
      XYYY   -1340.3551   YYYY   -4830.4696   XXXZ    -497.8400
      XXYZ    -474.6806   XYYZ    -597.7003   YYYZ   -1145.8442
      XXZZ   -1699.3337   XYZZ    -273.7009   YYZZ   -1115.8643
      XZZZ    -354.2605   YZZZ    -499.1025   ZZZZ    -530.3352
 -----------------------------------------------------------------
 Calculating analytic gradient of the SCF energy
 Gradient of SCF Energy
            1           2           3           4           5           6
    1   0.0031972   0.0055020   0.0053403   0.0004123   0.0046894   0.0030028
    2   0.0014803   0.0033818   0.0038022   0.0074705   0.0026315  -0.0827312
    3  -0.0054196   0.0088942  -0.0047351   0.0027534   0.0075084  -0.0035371
            7           8           9          10          11          12
    1   0.0020234  -0.0096623   0.0023670   0.0164569  -0.0126527  -0.0116772
    2   0.0154404   0.0869983  -0.0207451   0.0156060   0.0044570  -0.0026747
    3  -0.0048072   0.0016249   0.0027685  -0.0004772   0.0018339  -0.0014327
           13          14          15          16          17          18
    1   0.0187957   0.0157207  -0.0059833   0.0108724  -0.0050956  -0.0035188
    2  -0.0199704  -0.0060715  -0.0024376   0.0189634  -0.0153755   0.0069229
    3   0.0010791  -0.0019246  -0.0057159  -0.0172958  -0.0023657   0.0023980
           19          20          21          22          23          24
    1   0.0052262  -0.0049602  -0.0181143  -0.0013156  -0.0107049  -0.0097564
    2   0.0096812   0.0034458   0.0024952   0.0139703  -0.0061386   0.0063300
    3   0.0015821  -0.0039563   0.0107706  -0.0011208   0.0002655  -0.0003958
           25          26          27          28          29          30
    1  -0.0023051   0.0012105   0.0014836  -0.0036172   0.0020164  -0.0051254
    2  -0.0161358  -0.0100885  -0.0026328  -0.0033591  -0.0112295  -0.0142583
    3   0.0008935  -0.0014767   0.0014671  -0.0019585  -0.0098056   0.0161617
           31
    1   0.0061723
    2   0.0107718
    3   0.0064237
 Max gradient component =       8.700E-02
 RMS gradient           =       1.507E-02
 Computing fast CPCM-SWIG gradient.
Updating gradient with PCM contributions...
 -- total gradient after adding PCM contribution --
---------------------------------------------------
  Atom         X              Y              Z     
---------------------------------------------------
   1       0.014652      -0.000929       0.000023
   2       0.003444       0.006136       0.003115
   3       0.003123      -0.004001      -0.002733
   4      -0.012011       0.006636      -0.001613
   5      -0.004611      -0.010574       0.001097
   6      -0.012928      -0.021432       0.000500
   7       0.001016       0.000467      -0.001445
   8      -0.011964       0.022121      -0.000328
   9       0.000974      -0.000664       0.001210
  10       0.012440      -0.000262      -0.000349
  11      -0.005331       0.007074      -0.000226
  12      -0.005604      -0.006757       0.000302
  13       0.012263      -0.000572       0.000283
  14       0.022080       0.006074       0.005816
  15       0.000381      -0.002180       0.000450
  16       0.007478       0.008729      -0.004031
  17      -0.000769       0.000855       0.000566
  18      -0.009484      -0.001115       0.001464
  19       0.005089       0.000534       0.000604
  20      -0.000682       0.002139      -0.006746
  21      -0.018934      -0.002367      -0.002548
  22      -0.001622       0.000738      -0.000181
  23       0.000789      -0.000088      -0.000047
  24       0.000792       0.000083       0.000013
  25      -0.001643      -0.000617       0.000172
  26       0.001725      -0.000340      -0.000351
  27      -0.000936       0.000492       0.002326
  28      -0.000614       0.000279      -0.000185
  29       0.003400      -0.003459      -0.010187
  30      -0.009298      -0.000871       0.015649
  31       0.006785      -0.006131      -0.002621
---------------------------------------------------
Number of fixed atoms: 0
 Gradient time:  CPU 312.14 s  wall 165.03 s
 Geometry Optimization Parameters
   NAtoms,    NIC,     NZ,  NCons,   NDum,   NFix, NCnnct, MaxDiis
       31     249       0       0       0       0       0       0

 Cartesian Hessian Update
 Hessian Updated using BFGS Update


** GEOMETRY OPTIMIZATION IN DELOCALIZED INTERNAL COORDINATES **
   Searching for a Minimum

   Optimization Cycle:   3

                       Coordinates (Angstroms)
     ATOM                X               Y               Z
      1  Ni       -0.5505789458    1.5762748058    0.0039132306
      2  N        -1.8889550967    2.8476711350    0.0052489290
      3  N        -1.9782167983    0.3949295375   -0.0094037399
      4  N         0.8432108791    2.7948810707    0.0204111096
      5  N         0.7353068959    0.3048285849   -0.0110306391
      6  C        -3.1409768916    2.3819747660   -0.0260544682
      7  H        -1.7705644693    3.8561252580   -0.0976217138
      8  C        -3.1920152435    0.9503019427    0.0278594948
      9  H        -1.9250844938   -0.6179677918    0.0995214777
     10  C        -4.4448318621    0.2816233273    0.0800663003
     11  C        -5.5954517672    1.0407406503    0.0485245297
     12  C        -5.5444901182    2.4699546694   -0.0341662530
     13  C        -4.3412822285    3.1414764393   -0.0717276312
     14  C         2.0375022585    2.2583623901    0.0588534937
     15  H         0.7905131368    3.8036712409    0.1469936453
     16  C         2.0111888360    0.8029496686   -0.0509038216
     17  H         0.6188035174   -0.6945628907   -0.1520203838
     18  C         3.1951123294    0.1079073340   -0.1015366147
     19  C         4.4665396300    0.8124588807   -0.0655927054
     20  C         4.5224316722    2.1592685120    0.0594853365
     21  C         3.2892323121    2.9781288636    0.3212582295
     22  H        -4.3073452654    4.2267543454   -0.1272071829
     23  H        -6.5617491718    0.5474916122    0.0805877090
     24  H        -6.4725012005    3.0320867305   -0.0606966584
     25  H        -4.4914592203   -0.8030816335    0.1363102274
     26  H         3.2030208886   -0.9769371730   -0.1765465383
     27  H         5.3755021467    0.2229013385   -0.1272245272
     28  H         5.4680856934    2.6908773045    0.0984659512
     29  H         3.3648847983    3.8968801777   -0.2763929869
     30  O         3.2554132966    3.2505933235    1.7783443742
     31  O         2.8280044818    4.6138055798    2.0015618258
   Point Group: c1    Number of degrees of freedom:    87


   Energy is  -2342.063313779

 Hessian Updated using BFGS Update

 86 Hessian modes will be used to form the next step
  Hessian Eigenvalues:
     0.001982    0.004079    0.005574    0.006365    0.006759    0.007087
     0.007155    0.014078    0.015433    0.018567    0.018935    0.019137
     0.019482    0.020439    0.021094    0.021416    0.021707    0.021774
     0.022379    0.022489    0.022499    0.022503    0.023981    0.025117
     0.064783    0.073419    0.078858    0.087025    0.115637    0.150840
     0.154609    0.155688    0.156208    0.157953    0.158563    0.159731
     0.159927    0.159997    0.160007    0.160534    0.192332    0.205665
     0.210083    0.211500    0.216492    0.219998    0.220617    0.225330
     0.226632    0.233208    0.235869    0.240254    0.241302    0.241779
     0.246740    0.264661    0.271123    0.295573    0.315432    0.325345
     0.341102    0.341606    0.345134    0.346253    0.358161    0.360686
     0.360942    0.364462    0.381214    0.407918    0.415388    0.422138
     0.423427    0.424335    0.425560    0.431917    0.442972    0.456629
     0.456724    0.457345    0.468014    0.469687    0.478658    0.486637
     0.535476    0.566509

 Minimum Search - Taking Simple RFO Step
 Searching for Lamda that Minimizes Along All modes
 Value Taken    Lamda =  -0.01288398
 Calculated Step too Large.  Step scaled by  0.521374
 Step Taken.  Stepsize is  0.300000

                             Maximum     Tolerance    Cnvgd?
         Gradient           0.016463      0.000005      NO
         Displacement       0.132755      0.000010      NO
         Energy change     -0.018141      0.000000      NO


 New Cartesian Coordinates Obtained by Inverse Iteration

 Displacement from previous Coordinates is:  0.379316
 ----------------------------------------------------------------
             Standard Nuclear Orientation (Angstroms)
    I     Atom           X                Y                Z
 ----------------------------------------------------------------
    1      Ni     -0.5542958674     1.5755275836     0.0146028305
    2      N      -1.8886084194     2.8463897357     0.0119240043
    3      N      -1.9814903626     0.3955913544    -0.0007281003
    4      N       0.8569501691     2.7852432543     0.0358139815
    5      N       0.7385827712     0.3075325441    -0.0010263180
    6      C      -3.1353549569     2.3908955886    -0.0230095656
    7      H      -1.7688027962     3.8555149887    -0.0791115526
    8      C      -3.1890875998     0.9442686802     0.0319792897
    9      H      -1.9300601239    -0.6179079609     0.0991273205
   10      C      -4.4514465234     0.2806614222     0.0790929560
   11      C      -5.5936044303     1.0433354680     0.0441226369
   12      C      -5.5402152223     2.4780532438    -0.0365066958
   13      C      -4.3427303331     3.1498663141    -0.0703749867
   14      C       2.0446650129     2.2473970596     0.0682385520
   15      H       0.8074248363     3.7965668523     0.1581811388
   16      C       2.0160139392     0.7908046941    -0.0375224133
   17      H       0.6213183278    -0.6916646980    -0.1481360332
   18      C       3.2058452201     0.1018341514    -0.1043198890
   19      C       4.4739280546     0.8078416222    -0.0735949660
   20      C       4.5411592546     2.1537022815     0.0666335729
   21      C       3.3113009261     2.9793942905     0.3240455851
   22      H      -4.3031083691     4.2344774882    -0.1238837019
   23      H      -6.5636101203     0.5557875164     0.0726151834
   24      H      -6.4705674172     3.0373881859    -0.0645938276
   25      H      -4.4964194963    -0.8036057878     0.1339197526
   26      H       3.2089876959    -0.9821674361    -0.1884690920
   27      H       5.3815538176     0.2171325080    -0.1594321896
   28      H       5.4917245802     2.6776751136     0.0987275160
   29      H       3.3589643073     3.9069299210    -0.2564852909
   30      O       3.2870658923     3.2945160277     1.7532042020
   31      O       2.6631672331     4.5933879927     1.9542461003
 ----------------------------------------------------------------
 Nuclear Repulsion Energy =  1780.6428176364 hartrees
 There are       78 alpha and       78 beta electrons
No default van der Waals radius is available for Z = 28
	Found R = 1.6300 A in the $van_der_waals section
Discretize the solute cavity surface with Lebedev spheres
	Using 194 Lebedev grid points for each H atom
	Using 194 Lebedev grid points for other atoms
	Atomic van der Waals radii will be scaled by 1.20
 Serial switch compute.
 Remove points where switching function is < 1.0e-08
 Keep 2572 surface tesserae and discard 3442 interior tesserae
 Molecular Surface Area = 294.563 Angst**2
 Applying Cartesian multipole field
    Component          Value
    ---------          -----
     (2,0,0)        1.00000E-12
     (0,2,0)        2.00000E-11
     (0,0,2)       -3.00000E-11
 Nucleus-field energy     =     0.0000000554 hartrees
 Requested basis set is 6-31+G(d)
 There are 122 shells and 402 basis functions
 A cutoff of  1.0D-12 yielded   5517 shell pairs
 There are     64099 function pairs (     65107 Cartesian)
 Smallest overlap matrix eigenvalue = 1.07E-06
 Guess MOs from SCF MO coefficient file
 Reading MOs from coefficient file
 Reading MOs from coefficient file
 A restricted hybrid HF-DFT SCF calculation will be
 performed using Pulay DIIS extrapolation
 Polarizable Continuum solvation model will be applied
 Exchange:     0.2000 Hartree-Fock + 0.0800 Slater + 0.7200 B88
 Correlation:  0.1900 VWN1RPA + 0.8100 LYP
 Using Euler-Maclaurin-Lebedev (75,302) quadrature formula
 SCF converges when DIIS error is below 1.0E-08
 Geometry optimization detected.  Setting ReadMinima to 0
 Setting SaveMinima to 0
 using 2 threads for integral computing 
 -------------------------------------------------------
 OpenMP BLAS3 based DFT computing Module                
 Release: version 1.0, May 2013, Q-Chem Inc. Pittsburgh 
 -------------------------------------------------------
 ---------------------------------------
  Cycle       Energy         DIIS Error
 ---------------------------------------
    1   -2342.0284107817      1.82E-03
    2   -2340.8345863606      6.25E-03
    3   -2341.7853113677      2.42E-03
    4   -2341.9703570283      2.28E-03
    5   -2342.0282462408      1.43E-03
    6   -2342.0366925692      1.38E-03
    7   -2342.0491976681      9.93E-04
    8   -2342.0654059438      4.34E-04
    9   -2342.0683436570      1.78E-04
   10   -2342.0688439498      8.59E-05
   11   -2342.0690034420      1.56E-05
   12   -2342.0690088288      1.10E-05
   13   -2342.0690116448      4.67E-06
   14   -2342.0690125405      2.48E-06
   15   -2342.0690128591      1.20E-06
   16   -2342.0690129387      6.83E-07
   17   -2342.0690129637      2.73E-07
   18   -2342.0690129672      1.35E-07
   19   -2342.0690129677      8.53E-08
   20   -2342.0690129679      1.68E-08
   21   -2342.0690129679      7.38E-09 Convergence criterion met
 ---------------------------------------

************** Final PCM Free Energy Summary **************
 G_electrostatic  =      -0.08502811 hartree =     -53.35594449 kcal/mol
 G_cavitation     =       0.00000000 hartree =       0.00000000 kcal/mol
 G_dispersion     =       0.00000000 hartree =       0.00000000 kcal/mol
 G_repulsion      =       0.00000000 hartree =       0.00000000 kcal/mol
 --------------------------------------------------
 Non-electrostatic Free Energy =       0.00000000 hartree =       0.00000000 kcal/mol
 Total                         =      -0.08502811 hartree =     -53.35594449 kcal/mol
 --------------------------------------------------
 SCF Energy (H0 + V/2)                       =   -2342.06901297 
 Solute Internal Energy (H0)                 =   -2341.98398486 
 Total Free Energy (H0 + V/2 + non-elec)     =   -2342.06901297 hartree
                                             = -1469670.48737300 kcal/mol
***********************************************************

 SCF time:  CPU 1262.31 s  wall 676.81 s
 SCF   energy in the final basis set = -2342.0690129679
 Total energy in the final basis set = -2342.0690129679
 
 --------------------------------------------------------------
 
                    Orbital Energies (a.u.)
 --------------------------------------------------------------
 
 Alpha MOs
 -- Occupied --
******* -35.865 -31.307 -31.298 -31.273 -19.185 -19.105 -14.380
-14.378 -14.378 -14.351 -10.265 -10.263 -10.262 -10.251 -10.245
-10.220 -10.219 -10.217 -10.215 -10.215 -10.211 -10.207  -4.061
 -2.671  -2.654  -2.612  -1.048  -0.976  -0.963  -0.910  -0.895
 -0.853  -0.847  -0.795  -0.762  -0.732  -0.724  -0.710  -0.649
 -0.642  -0.609  -0.598  -0.553  -0.543  -0.531  -0.520  -0.516
 -0.496  -0.471  -0.463  -0.457  -0.453  -0.450  -0.439  -0.437
 -0.427  -0.414  -0.403  -0.393  -0.380  -0.372  -0.363  -0.359
 -0.349  -0.344  -0.341  -0.337  -0.324  -0.321  -0.312  -0.276
 -0.270  -0.265  -0.239  -0.215  -0.204  -0.182
 -- Virtual --
 -0.143  -0.091  -0.054  -0.017  -0.003   0.003   0.009   0.014
  0.016   0.022   0.031   0.037   0.041   0.042   0.047   0.053
  0.055   0.060   0.064   0.069   0.070   0.079   0.082   0.087
  0.090   0.094   0.101   0.106   0.112   0.115   0.118   0.126
  0.128   0.129   0.133   0.138   0.145   0.150   0.150   0.157
  0.162   0.168   0.170   0.174   0.175   0.178   0.182   0.183
  0.187   0.191   0.194   0.198   0.203   0.204   0.209   0.210
  0.213   0.217   0.223   0.224   0.226   0.227   0.232   0.237
  0.242   0.245   0.246   0.247   0.251   0.253   0.254   0.259
  0.263   0.268   0.271   0.274   0.279   0.283   0.288   0.292
  0.293   0.299   0.307   0.311   0.316   0.321   0.325   0.327
  0.331   0.334   0.339   0.347   0.351   0.355   0.363   0.371
  0.381   0.392   0.400   0.402   0.408   0.419   0.425   0.430
  0.441   0.451   0.458   0.470   0.478   0.489   0.521   0.531
  0.564   0.565   0.584   0.608   0.636   0.646   0.656   0.667
  0.683   0.691   0.700   0.712   0.713   0.722   0.725   0.734
  0.738   0.744   0.755   0.756   0.761   0.770   0.776   0.790
  0.808   0.830   0.847   0.854   0.877   0.880   0.891   0.905
  0.914   0.930   0.944   0.947   0.953   0.955   0.967   0.970
  0.982   0.986   0.996   1.000   1.013   1.034   1.041   1.050
  1.057   1.065   1.082   1.091   1.093   1.098   1.130   1.143
  1.147   1.156   1.164   1.179   1.184   1.193   1.213   1.224
  1.238   1.242   1.246   1.253   1.264   1.279   1.289   1.295
  1.309   1.326   1.329   1.352   1.355   1.361   1.377   1.385
  1.394   1.407   1.410   1.418   1.419   1.447   1.454   1.463
  1.469   1.486   1.496   1.507   1.518   1.533   1.546   1.557
  1.614   1.629   1.633   1.658   1.664   1.689   1.715   1.722
  1.745   1.767   1.781   1.801   1.809   1.827   1.832   1.854
  1.865   1.880   1.894   1.916   1.921   1.928   1.938   1.953
  1.968   1.972   1.988   1.995   1.997   2.010   2.016   2.036
  2.057   2.066   2.080   2.089   2.105   2.117   2.119   2.135
  2.158   2.174   2.179   2.190   2.193   2.228   2.244   2.254
  2.267   2.270   2.283   2.291   2.308   2.312   2.345   2.358
  2.379   2.423   2.451   2.467   2.490   2.495   2.506   2.532
  2.558   2.583   2.593   2.610   2.616   2.622   2.634   2.661
  2.669   2.675   2.694   2.713   2.729   2.751   2.803   2.825
  2.834   2.846   2.880   2.909   2.932   2.953   2.984   2.998
  3.019   3.049   3.162   3.203   3.242   3.259   3.307   3.360
  3.407   4.010   4.133   4.215   4.238   4.282   4.288   4.313
  4.322   4.353   4.386   4.428   4.448   4.456   4.469   4.497
  4.611   4.764   4.790  33.047
 --------------------------------------------------------------
 
          Ground-State Mulliken Net Atomic Charges

     Atom                 Charge (a.u.)
  ----------------------------------------
      1 Ni                    0.517415
      2 N                    -0.655723
      3 N                    -0.623915
      4 N                    -0.618471
      5 N                    -0.742670
      6 C                     2.056787
      7 H                     0.462335
      8 C                     1.990257
      9 H                     0.460907
     10 C                    -1.876959
[...]
       YYY   -1055.2285    XXZ     -24.7166    XYZ     -64.7672
       YYZ     -91.0619    XZZ      12.8148    YZZ    -253.2891
       ZZZ     -51.4799
    Hexadecapole Moments (Debye-Ang^3)
      XXXX   -6010.8712   XXXY    -713.6070   XXYY   -2240.6845
      XYYY   -1603.6585   YYYY   -6172.3589   XXXZ    -237.6444
      XXYZ    -135.0523   XYYZ    -327.5450   YYYZ    -587.8199
      XXZZ   -1469.3811   XYZZ     -79.6971   YYZZ    -837.7990
      XZZZ    -156.5209   YZZZ    -248.2352   ZZZZ    -278.1134
 -----------------------------------------------------------------
 Calculating analytic gradient of the SCF energy
 Gradient of SCF Energy
            1           2           3           4           5           6
    1  -0.0121192   0.0061627   0.0046376   0.0178564   0.0086552   0.0190992
    2   0.0014703   0.0015719   0.0082002   0.0082516   0.0161920  -0.0588481
    3  -0.0006140  -0.0014130   0.0008448   0.0021380  -0.0015184  -0.0127909
            7           8           9          10          11          12
    1  -0.0017381   0.0028918   0.0009669   0.0011947  -0.0098305  -0.0059971
    2   0.0103063   0.0672889  -0.0210765   0.0149092  -0.0012114   0.0036027
    3   0.0020559   0.0074387  -0.0037719   0.0044790  -0.0007048   0.0021282
           13          14          15          16          17          18
    1   0.0079357  -0.0337044  -0.0061396   0.0124762  -0.0046581   0.0099959
    2  -0.0194047  -0.0236469  -0.0105867   0.0071672  -0.0159524   0.0092705
    3  -0.0015758  -0.0016146  -0.0029398   0.0030911   0.0002496   0.0027236
           19          20          21          22          23          24
    1   0.0033147   0.0005918   0.0015078   0.0004167  -0.0125380  -0.0111711
    2   0.0099204  -0.0066725   0.0250263   0.0122235  -0.0063341   0.0059801
    3  -0.0013065  -0.0015978  -0.0057856   0.0023124  -0.0001306   0.0021851
           25          26          27          28          29          30
    1  -0.0004634  -0.0006848   0.0023673  -0.0037874  -0.0014804   0.0077762
    2  -0.0164606  -0.0093154  -0.0031724  -0.0044929  -0.0074164  -0.0084475
    3  -0.0031911  -0.0007320   0.0001447  -0.0019761   0.0049686   0.0114151
           31
    1  -0.0035347
    2   0.0116573
    3  -0.0045119
 Max gradient component =       6.729E-02
 RMS gradient           =       1.304E-02
 Computing fast CPCM-SWIG gradient.
Updating gradient with PCM contributions...
 -- total gradient after adding PCM contribution --
---------------------------------------------------
  Atom         X              Y              Z     
---------------------------------------------------
   1      -0.000002      -0.000004       0.000000
   2       0.000004       0.000002      -0.000002
   3       0.000000      -0.000001       0.000003
   4       0.000001       0.000004       0.000002
   5       0.000001      -0.000001       0.000003
   6      -0.000003      -0.000003       0.000001
   7       0.000001       0.000001      -0.000001
   8      -0.000001       0.000004      -0.000005
   9      -0.000001       0.000000      -0.000001
  10       0.000001       0.000000       0.000001
  11      -0.000000       0.000002      -0.000001
  12      -0.000001       0.000000      -0.000001
  13       0.000002       0.000001      -0.000002
  14       0.000004      -0.000000      -0.000000
  15       0.000001      -0.000001      -0.000002
  16      -0.000002       0.000003      -0.000002
  17      -0.000001      -0.000000       0.000000
  18       0.000003      -0.000001       0.000003
  19      -0.000004      -0.000004       0.000001
  20       0.000003       0.000005      -0.000001
  21      -0.000006      -0.000005       0.000006
  22       0.000000       0.000001      -0.000002
  23      -0.000000       0.000001      -0.000002
  24       0.000000       0.000001      -0.000002
  25      -0.000000       0.000001      -0.000001
  26      -0.000000      -0.000001       0.000001
  27       0.000000      -0.000001       0.000002
  28      -0.000000      -0.000002       0.000002
  29       0.000002      -0.000002      -0.000001
  30       0.000002      -0.000001       0.000002
  31      -0.000002       0.000002      -0.000000
---------------------------------------------------
Number of fixed atoms: 0
 Gradient time:  CPU 312.60 s  wall 165.33 s
 Geometry Optimization Parameters
   NAtoms,    NIC,     NZ,  NCons,   NDum,   NFix, NCnnct, MaxDiis
       31     249       0       0       0       0       0       0

 Cartesian Hessian Update
 Hessian Updated using BFGS Update
**WARNING** Hereditary positive definiteness endangered
**WARNING** Small Scalar Product
 Hessian Update Skipped this cycle


** GEOMETRY OPTIMIZATION IN DELOCALIZED INTERNAL COORDINATES **
   Searching for a Minimum

   Optimization Cycle:  30

                       Coordinates (Angstroms)
     ATOM                X               Y               Z
      1  Ni       -0.5465695350    1.5994385350   -0.2089247648
      2  N        -1.8727055427    2.8464458669    0.0702377185
      3  N        -1.9747099646    0.4272987421   -0.3388563453
      4  N         0.8827476930    2.7719520196    0.0100860920
      5  N         0.7501340409    0.3320418026   -0.3907056028
      6  C        -3.1107853054    2.3887151803    0.1192144393
      7  H        -1.7425737784    3.8369503502    0.2773036211
      8  C        -3.1732173852    0.9477493734   -0.1527696430
      9  H        -1.9299384417   -0.5716818699   -0.5390107251
     10  C        -4.4440106120    0.2856800021   -0.1742195608
     11  C        -5.5692228652    1.0246244873    0.0728544685
     12  C        -5.5065865663    2.4410588644    0.3508579937
     13  C        -4.3170647331    3.1169375302    0.3783708663
     14  C         2.0533343638    2.2113059456    0.0249405327
     15  H         0.9449820165    3.7925018634    0.1981733101
     16  C         2.0201871718    0.7621324422   -0.1417885037
     17  H         0.6067519332   -0.6755011648   -0.3761954330
     18  C         3.1872992455    0.0506112133    0.0406613931
     19  C         4.4175318167    0.7250944697    0.3950485141
     20  C         4.5057981835    2.0707053346    0.5379589615
     21  C         3.3453840471    2.9706221452    0.2163139321
     22  H        -4.2652162743    4.1823918964    0.5843455344
     23  H        -6.5429266886    0.5429304489    0.0646640069
     24  H        -6.4350426588    2.9723679150    0.5393511445
     25  H        -4.4893818359   -0.7800524879   -0.3800345912
     26  H         3.1804411782   -1.0343167375   -0.0292745719
     27  H         5.2963933557    0.1071831746    0.5618814513
     28  H         5.4394920917    2.5549380710    0.8093647956
     29  H         3.5714468532    3.4388801991   -0.7664009683
     30  O         3.2263100269    3.9943772545    1.1826052359
     31  O         2.2909681694    5.0189871326    0.6432266984
   Point Group: c1    Number of degrees of freedom:    87


   Energy is  -2342.078135786

 Hessian Updated using BFGS Update
**WARNING** Hereditary positive definiteness endangered
**WARNING** Small Scalar Product
 Hessian Update Skipped this cycle

 87 Hessian modes will be used to form the next step
  Hessian Eigenvalues:
     0.001725    0.002397    0.003096    0.004714    0.006111    0.008034
     0.010930    0.011304    0.015841    0.016387    0.017230    0.019166
     0.019928    0.020077    0.020864    0.021558    0.021644    0.021719
     0.021946    0.022280    0.022464    0.022512    0.022623    0.023208
     0.025607    0.032628    0.058870    0.077819    0.090123    0.095919
     0.150850    0.154460    0.156148    0.157535    0.158476    0.159915
     0.159996    0.160001    0.160213    0.161431    0.177350    0.188408
     0.196888    0.210668    0.215102    0.216569    0.217318    0.220008
     0.225963    0.227905    0.232005    0.239106    0.241797    0.244886
     0.246736    0.250249    0.290579    0.303937    0.317542    0.329332
     0.339545    0.341102    0.342525    0.345993    0.356587    0.358248
     0.360686    0.361007    0.364821    0.396871    0.415436    0.418394
     0.423461    0.425217    0.426776    0.427600    0.431286    0.448995
     0.456624    0.457032    0.457302    0.459898    0.474949    0.523830
     0.536333    0.560641    0.575494

 Minimum Search - Taking Simple RFO Step
 Searching for Lamda that Minimizes Along All modes
 Value Taken    Lamda =   0.00000000
 Step Taken.  Stepsize is  0.000277

                             Maximum     Tolerance    Cnvgd?
         Gradient           0.000004      0.000005     YES
         Displacement       0.000100      0.000010      NO
         Energy change     -0.000000      0.000000     YES

 Final energy is   -2342.07813578590     


 ******************************
 **  OPTIMIZATION CONVERGED  **
 ******************************

                       Coordinates (Angstroms)
     ATOM                X               Y               Z
      1  Ni       -0.5465695350    1.5994385350   -0.2089247648
      2  N        -1.8727055427    2.8464458669    0.0702377185
      3  N        -1.9747099646    0.4272987421   -0.3388563453
      4  N         0.8827476930    2.7719520196    0.0100860920
      5  N         0.7501340409    0.3320418026   -0.3907056028
      6  C        -3.1107853054    2.3887151803    0.1192144393
      7  H        -1.7425737784    3.8369503502    0.2773036211
      8  C        -3.1732173852    0.9477493734   -0.1527696430
      9  H        -1.9299384417   -0.5716818699   -0.5390107251
     10  C        -4.4440106120    0.2856800021   -0.1742195608
     11  C        -5.5692228652    1.0246244873    0.0728544685
     12  C        -5.5065865663    2.4410588644    0.3508579937
     13  C        -4.3170647331    3.1169375302    0.3783708663
     14  C         2.0533343638    2.2113059456    0.0249405327
     15  H         0.9449820165    3.7925018634    0.1981733101
     16  C         2.0201871718    0.7621324422   -0.1417885037
     17  H         0.6067519332   -0.6755011648   -0.3761954330
     18  C         3.1872992455    0.0506112133    0.0406613931
     19  C         4.4175318167    0.7250944697    0.3950485141
     20  C         4.5057981835    2.0707053346    0.5379589615
     21  C         3.3453840471    2.9706221452    0.2163139321
     22  H        -4.2652162743    4.1823918964    0.5843455344
     23  H        -6.5429266886    0.5429304489    0.0646640069
     24  H        -6.4350426588    2.9723679150    0.5393511445
     25  H        -4.4893818359   -0.7800524879   -0.3800345912
     26  H         3.1804411782   -1.0343167375   -0.0292745719
     27  H         5.2963933557    0.1071831746    0.5618814513
     28  H         5.4394920917    2.5549380710    0.8093647956
     29  H         3.5714468532    3.4388801991   -0.7664009683
     30  O         3.2263100269    3.9943772545    1.1826052359
     31  O         2.2909681694    5.0189871326    0.6432266984

Z-matrix Print:
$molecule
0 1
Ni
N  1 1.822300
H  2 1.017798 1 125.931690
C  2 1.363808 1 115.158295 3 160.353936 0
C  4 1.379022 2 130.510416 1 -167.451707 0
H  5 1.087201 4 120.068341 2 -1.395520 0
C  5 1.447063 4 120.758919 2 175.352739 0
H  7 1.087219 5 117.380984 4 -177.767660 0
C  7 1.356054 5 122.933291 4 1.469544 0
H  9 1.086244 7 121.643617 5 -179.702984 0
C  4 1.459110 2 110.807170 1 8.411603 0
N  11 1.298005 4 114.028598 2 -5.127653 0
H  12 1.039602 11 111.589597 4 -175.997112 0
C  9 1.503285 7 121.414779 5 5.482243 0
H  14 1.111800 9 106.516537 7 103.415355 0
O  14 1.412789 9 110.640840 7 -138.909657 0
O  16 1.488496 14 107.693352 9 -166.671232 0
N  1 1.841629 2 176.811334 3 -64.746033 0
H  18 1.020250 1 126.605296 2 -102.053660 0
C  18 1.320893 1 116.482186 2 71.767305 0
C  20 1.432683 18 128.298097 1 -177.068215 0
H  21 1.086419 20 119.511387 18 1.163968 0
C  21 1.368405 20 118.503685 18 -178.504895 0
H  23 1.086209 21 119.864146 20 179.700331 0
C  23 1.444817 21 121.719992 20 -0.175005 0
H  25 1.086368 23 118.359055 21 180.000000 0
C  25 1.368644 23 121.897251 21 -0.141694 0
H  27 1.086372 25 121.972848 23 -179.786751 0
C  27 1.433078 25 118.483161 23 -0.040738 0
N  29 1.319817 27 128.386474 25 -178.725942 0
H  30 1.019818 29 116.988829 27 -1.032024 0
$end

 
 --------------------------------------------------------------
 
                    Orbital Energies (a.u.)
 --------------------------------------------------------------
 
 Alpha MOs
 -- Occupied --
******* -35.862 -31.304 -31.295 -31.270 -19.180 -19.109 -14.381
-14.379 -14.365 -14.348 -10.266 -10.265 -10.260 -10.256 -10.244
-10.222 -10.221 -10.217 -10.216 -10.216 -10.210 -10.208  -4.058
 -2.668  -2.652  -2.610  -1.050  -0.977  -0.958  -0.914  -0.891
 -0.854  -0.846  -0.803  -0.764  -0.730  -0.723  -0.708  -0.649
 -0.637  -0.609  -0.594  -0.552  -0.536  -0.532  -0.520  -0.512
 -0.496  -0.478  -0.462  -0.458  -0.452  -0.446  -0.439  -0.438
 -0.426  -0.411  -0.405  -0.392  -0.383  -0.370  -0.363  -0.357
 -0.346  -0.345  -0.342  -0.333  -0.324  -0.320  -0.306  -0.274
 -0.268  -0.263  -0.239  -0.221  -0.201  -0.193
 -- Virtual --
 -0.141  -0.082  -0.053  -0.017  -0.004   0.003   0.004   0.014
  0.017   0.022   0.032   0.035   0.037   0.042   0.048   0.054
  0.055   0.058   0.064   0.070   0.074   0.077   0.084   0.089
  0.093   0.095   0.100   0.107   0.113   0.116   0.120   0.124
  0.128   0.130   0.132   0.141   0.143   0.150   0.157   0.158
  0.160   0.164   0.170   0.175   0.177   0.179   0.179   0.183
  0.187   0.191   0.192   0.198   0.202   0.205   0.210   0.212
  0.216   0.218   0.223   0.225   0.228   0.229   0.233   0.239
  0.242   0.244   0.248   0.250   0.253   0.259   0.261   0.265
  0.267   0.270   0.273   0.276   0.280   0.282   0.287   0.293
  0.299   0.304   0.306   0.310   0.314   0.319   0.320   0.324
  0.330   0.335   0.340   0.346   0.347   0.357   0.371   0.374
  0.381   0.388   0.393   0.399   0.411   0.419   0.428   0.433
  0.437   0.447   0.454   0.463   0.475   0.482   0.519   0.532
  0.559   0.574   0.581   0.607   0.635   0.645   0.660   0.665
  0.674   0.680   0.699   0.709   0.722   0.726   0.731   0.736
  0.740   0.744   0.745   0.758   0.766   0.770   0.775   0.794
  0.811   0.826   0.831   0.863   0.878   0.882   0.899   0.905
  0.916   0.933   0.935   0.942   0.950   0.956   0.961   0.965
  0.976   0.981   0.992   1.001   1.012   1.034   1.039   1.052
  1.057   1.068   1.075   1.090   1.095   1.108   1.125   1.127
  1.156   1.159   1.171   1.182   1.186   1.212   1.216   1.229
  1.234   1.242   1.250   1.265   1.270   1.283   1.297   1.305
  1.316   1.317   1.325   1.341   1.358   1.358   1.377   1.384
  1.392   1.409   1.413   1.417   1.426   1.453   1.456   1.469
  1.478   1.492   1.499   1.504   1.532   1.534   1.546   1.567
  1.581   1.609   1.639   1.653   1.677   1.706   1.717   1.731
  1.745   1.770   1.777   1.799   1.815   1.825   1.838   1.854
  1.860   1.890   1.910   1.913   1.922   1.939   1.944   1.953
  1.967   1.984   1.996   1.999   2.001   2.005   2.028   2.036
  2.055   2.066   2.075   2.094   2.103   2.110   2.121   2.148
  2.166   2.175   2.187   2.193   2.215   2.237   2.254   2.256
  2.266   2.273   2.285   2.295   2.300   2.318   2.344   2.356
  2.371   2.416   2.447   2.466   2.480   2.487   2.494   2.532
  2.547   2.581   2.599   2.606   2.607   2.630   2.631   2.658
  2.665   2.684   2.710   2.722   2.739   2.743   2.804   2.829
  2.843   2.866   2.912   2.932   2.944   2.982   2.984   2.986
  3.015   3.040   3.160   3.199   3.242   3.270   3.318   3.368
  3.399   4.009   4.158   4.222   4.236   4.276   4.286   4.305
  4.325   4.343   4.404   4.434   4.452   4.461   4.470   4.487
  4.553   4.760   4.821  33.068
 --------------------------------------------------------------
 
          Ground-State Mulliken Net Atomic Charges

     Atom                 Charge (a.u.)
  ----------------------------------------
      1 Ni                    0.511963
      2 N                    -0.635178
      3 N                    -0.652989
      4 N                    -0.582267
      5 N                    -0.768674
      6 C                     2.015176
      7 H                     0.468121
      8 C                     1.981288
      9 H                     0.469276
     10 C                    -1.859908
     11 C                    -0.348890
     12 C                    -0.361633
     13 C                    -1.768596
     14 C                     1.003126
     15 H                     0.482887
     16 C                     1.455700
     17 H                     0.437278
     18 C                    -1.453063
     19 C                    -0.242551
     20 C                    -0.209354
     21 C                    -0.814191
     22 H                     0.237337
     23 H                     0.228769
     24 H                     0.228388
     25 H                     0.236785
     26 H                     0.228204
     27 H                     0.216584
     28 H                     0.222923
     29 H                     0.246556
     30 O                    -0.223650
     31 O                    -0.749419
  ----------------------------------------
  Sum of atomic charges =     0.000000

 -----------------------------------------------------------------
                    Cartesian Multipole Moments
 -----------------------------------------------------------------
    Charge (ESU x 10^10)
                 0.0000
    Dipole Moment (Debye)
         X     -14.2774      Y     -13.7910      Z      -3.4664
       Tot      20.1507
    Quadrupole Moments (Debye-Ang)
        XX     -82.0842     XY     -58.7558     YY    -182.0184
        XZ     -11.1185     YZ     -14.0340     ZZ    -128.8223
    Octopole Moments (Debye-Ang^2)
       XXX    -149.7789    XXY    -260.6125    XYY    -275.8589
       YYY   -1055.2285    XXZ     -24.7166    XYZ     -64.7672
       YYZ     -91.0619    XZZ      12.8148    YZZ    -253.2891
       ZZZ     -51.4799
    Hexadecapole Moments (Debye-Ang^3)
      XXXX   -6010.8712   XXXY    -713.6070   XXYY   -2240.6845
      XYYY   -1603.6585   YYYY   -6172.3589   XXXZ    -237.6444
      XXYZ    -135.0523   XYYZ    -327.5450   YYYZ    -587.8199
      XXZZ   -1469.3811   XYZZ     -79.6971   YYZZ    -837.7990
      XZZZ    -156.5209   YZZZ    -248.2352   ZZZZ    -278.1134
 -----------------------------------------------------------------
Archival summary:
1\1\n15\OPT\ProcedureUnspecified\6-31+G*\i1241212\nricke\MonFeb2718:47:132017MonFeb2718:47:132017\0\\#,OPT,ProcedureUnspecified,6-31+G*,\\0,1\Ni\N,1,1.8223\H,2,1.0178,1,125.932\C,2,1.36381,1,115.158,3,160.354,0\C,4,1.37902,2,130.51,1,-167.452,0\H,5,1.0872,4,120.068,2,-1.39552,0\C,5,1.44706,4,120.759,2,175.353,0\H,7,1.08722,5,117.381,4,-177.768,0\C,7,1.35605,5,122.933,4,1.46954,0\H,9,1.08624,7,121.644,5,-179.703,0\C,4,1.45911,2,110.807,1,8.4116,0\N,11,1.29801,4,114.029,2,-5.12765,0\H,12,1.0396,11,111.59,4,-175.997,0\C,9,1.50329,7,121.415,5,5.48224,0\H,14,1.1118,9,106.517,7,103.415,0\O,14,1.41279,9,110.641,7,-138.91,0\O,16,1.4885,14,107.693,9,-166.671,0\N,1,1.84163,2,176.811,3,-64.746,0\H,18,1.02025,1,126.605,2,-102.054,0\C,18,1.32089,1,116.482,2,71.7673,0\C,20,1.43268,18,128.298,1,-177.068,0\H,21,1.08642,20,119.511,18,1.16397,0\C,21,1.3684,20,118.504,18,-178.505,0\H,23,1.08621,21,119.864,20,179.7,0\C,23,1.44482,21,121.72,20,-0.175005,0\H,25,1.08637,23,118.359,21,180,0\C,25,1.36864,23,121.897,21,-0.141694,0\H,27,1.08637,25,121.973,23,-179.787,0\C,27,1.43308,25,118.483,23,-0.0407382,0\N,29,1.31982,27,128.386,25,-178.726,0\H,30,1.01982,29,116.989,27,-1.03202,0\\\@

 Total job time:  28807.69s(wall), 53744.32s(cpu) 
 Mon Feb 27 18:47:13 2017

        *************************************************************
        *                                                           *
        *  Thank you very much for using Q-Chem.  Have a nice day.  *
        *                                                           *
        *************************************************************


