n42.ulysses.mit.edu 127.0.1
Q-Chem Developer Version! Running on 127.0.1.*
                  Welcome to Q-Chem
     A Quantum Leap Into The Future Of Chemistry


 Q-Chem 4.4, Q-Chem, Inc., Pleasanton, CA (2016)

 Y. Shao,  Z. Gan,  E. Epifanovsky,  A. T. B. Gilbert,  M. Wormit,  
 J. Kussmann,  A. W. Lange,  A. Behn,  J. Deng,  X. Feng,  D. Ghosh,  
 M. Goldey,  P. R. Horn,  L. D. Jacobson,  I. Kaliman,  F.Rob,  
 R. Z. Khaliullin,  T. Kus,  A. Landau,  J. Liu,  E. I. Proynov,  Y. M. Rhee,  
 R. M. Richard,  M. A. Rohrdanz,  R. P. Steele,  E. J. Sundstrom,  
 H. L. Woodcock III,  P. M. Zimmerman,  D. Zuev,  B. Albrecht,  E. Alguire,  
 B. Austin,  S. A. Baeppler,  G. J. O. Beran,  Y. A. Bernard,  E. Berquist,  
 K. Brandhorst,  K. B. Bravaya,  S. T. Brown,  D. Casanova,  C.-M. Chang,  
 Y. Chen,  S. H. Chien,  K. D. Closser,  M. P. Coons,  D. L. Crittenden,  
 S. Dasgupta,  M. Diedenhofen,  R. A. DiStasio Jr.,  H. Do,  A. D. Dutoi,  
 R. G. Edgar,  P.-T. Fang,  S. Fatehi,  Q. Feng,  L. Fusti-Molnar,  
 A. Ghysels,  A. Golubeva-Zadorozhnaya,  J. Gomes,  A. Gunina,  
 M. W. D. Hanson-Heine,  P. H. P. Harbach,  A. W. Hauser,  E. G. Hohenstein,  
 Z. C. Holden,  K. Hui,  T.-C. Jagau,  H. Ji,  B. Kaduk,  K. Khistyaev,  
 Jaehoon Kim,  Jihan Kim,  R. A. King,  P. Klunzinger,  D. Kosenkov,  
 T. Kowalczyk,  C. M. Krauter,  A. Kunitsa,  K. U. Lao,  A. Laurent,  
 K. V. Lawler,  D. Lefrancois,  S. Lehtola,  S. V. Levchenko,  C. Y. Lin,  
 Y.-S. Lin,  F. Liu,  E. Livshits,  R. C. Lochan,  A. Luenser,  P. Manohar,  
 S. F. Manzer,  S.-P. Mao,  Y. Mao,  N. Mardirossian,  A. V. Marenich,  
 L. A. Martinez-Martinez,  S. A. Maurer,  N. J. Mayhall,  J.-M. Mewes,  
 A. F. Morrison,  K. Nanda,  C. M. Oana,  R. Olivares-Amaya,  D. P. O'Neill,  
 J. A. Parkhill,  T. M. Perrine,  R. Peverati,  P. A. Pieniazek,  F. Plasser,  
 A. Prociuk,  D. R. Rehn,  E. Rosta,  N. J. Russ,  N. Sergueev,  
 S. M. Sharada,  S. Sharma,  D. W. Small,  A. Sodt,  T. Stauch,  T. Stein,  
 D. Stuck,  Y.-C. Su,  A. J. W. Thom,  T. Tsuchimochi,  L. Vogt,  O. Vydrov,  
 T. Wang,  M. A. Watson,  J. Wenzel,  A. White,  C. F. Williams,  
 V. Vanovschi,  S. Yeganeh,  S. R. Yost,  Z.-Q. You,  I. Y. Zhang,  X. Zhang,  
 Y. Zhao,  B. R. Brooks,  G. K. L. Chan,  D. M. Chipman,  C. J. Cramer,  
 W. A. Goddard III,  M. S. Gordon,  W. J. Hehre,  A. Klamt,  
 H. F. Schaefer III,  M. W. Schmidt,  C. D. Sherrill,  D. G. Truhlar,  
 A. Warshel,  X. Xu,  A. Aspuru-Guzik,  R. Baer,  A. T. Bell,  N. A. Besley,  
 J.-D. Chai,  A. Dreuw,  B. D. Dunietz,  T. R. Furlani,  S. R. Gwaltney,  
 C.-P. Hsu,  Y. Jung,  J. Kong,  D. S. Lambrecht,  W. Liang,  C. Ochsenfeld,  
 V. A. Rassolov,  L. V. Slipchenko,  J. E. Subotnik,  T. Van Voorhis,  
 J. M. Herbert,  A. I. Krylov,  P. M. W. Gill,  M. Head-Gordon

 Contributors to earlier versions of Q-Chem not listed above: 
 R. D. Adamson,  J. Baker,  E. F. C. Byrd,  A. K. Chakraborty,  C.-L. Cheng,  
 H. Dachsel,  R. J. Doerksen,  G. Hawkins,  A. Heyden,  S. Hirata,  
 G. Kedziora,  F. J. Keil,  C. Kelley,  P. P. Korambath,  W. Kurlancheek,  
 A. M. Lee,  M. S. Lee,  D. Liotard,  I. Lotan,  P. E. Maslen,  N. Nair,  
 D. Neuhauser,  R. Olson,  B. Peters,  J. Ritchie,  N. E. Schultz,  
 N. Shenvi,  A. C. Simmonett,  K. S. Thanthiriwatte,  Q. Wu,  W. Zhang

 Please cite Q-Chem as follows:
 Y. Shao et al., Mol. Phys. 113, 184-215 (2015)
 DOI: 10.1080/00268976.2014.952696

 Q-Chem 4.4.1 for Intel X86 EM64T Linux

 Parts of Q-Chem use Armadillo 5.200.1 (Boston Tea Smuggler).
 http://arma.sourceforge.net/

 Q-Chem begins on Fri Mar  3 09:43:54 2017  

Host: 
0

     Scratch files written to /scratch/nricke/qchem29933//
Processing $rem in /opt/qchem.20160914/config/preferences.
xc_grid     000075000302
max_scf_cycles  200
geom_opt_max_cycles 200
symmetry    false
sym_ignore  true
Symmetry turned off for PCM calculation

Checking the input file for inconsistencies... 	...done.

--------------------------------------------------------------
User input:
--------------------------------------------------------------
$molecule
0 1
Ni -0.5465695350 1.5994385350 -0.2089247648
N -1.8727055427 2.8464458669 0.0702377185
N -1.9747099646 0.4272987421 -0.3388563453
N 0.8827476930 2.7719520196 0.0100860920
N 0.7501340409 0.3320418026 -0.3907056028
C -3.1107853054 2.3887151803 0.1192144393
H -1.7425737784 3.8369503502 0.2773036211
C -3.1732173852 0.9477493734 -0.1527696430
H -1.9299384417 -0.5716818699 -0.5390107251
C -4.4440106120 0.2856800021 -0.1742195608
C -5.5692228652 1.0246244873 0.0728544685
C -5.5065865663 2.4410588644 0.3508579937
C -4.3170647331 3.1169375302 0.3783708663
C 2.0533343638 2.2113059456 0.0249405327
H 0.9449820165 3.7925018634 0.1981733101
C 2.0201871718 0.7621324422 -0.1417885037
H 0.6067519332 -0.6755011648 -0.3761954330
C 3.1872992455 0.0506112133 0.0406613931
C 4.4175318167 0.7250944697 0.3950485141
C 4.5057981835 2.0707053346 0.5379589615
C 3.3453840471 2.9706221452 0.2163139321
H -4.2652162743 4.1823918964 0.5843455344
H -6.5429266886 0.5429304489 0.0646640069
H -6.4350426588 2.9723679150 0.5393511445
H -4.4893818359 -0.7800524879 -0.3800345912
H 3.1804411782 -1.0343167375 -0.0292745719
H 5.2963933557 0.1071831746 0.5618814513
H 5.4394920917 2.5549380710 0.8093647956
H 3.5714468532 3.4388801991 -0.7664009683
O 3.2263100269 3.9943772545 1.1826052359
O 2.2909681694 5.0189871326 0.6432266984
$end

$rem
method b3lyp
basis 6-31+g*
thresh 12
mem_total 4096 
mem_static 512
jobtype freq
cpscf_nseg 4
mem_total 2048
mem_static 256
solvent_method pcm
$end

$pcm
theory cpcm
method swig
solver inversion
heavypoints 194
hpoints 194
radii bondi
vdwscale 1.2
$end

$solvent
dielectric 78.39
$end

$van_der_waals
1
28  1.63
$end
--------------------------------------------------------------
 ----------------------------------------------------------------
             Standard Nuclear Orientation (Angstroms)
    I     Atom           X                Y                Z
 ----------------------------------------------------------------
    1      Ni     -0.5465695350     1.5994385350    -0.2089247648
    2      N      -1.8727055427     2.8464458669     0.0702377185
    3      N      -1.9747099646     0.4272987421    -0.3388563453
    4      N       0.8827476930     2.7719520196     0.0100860920
    5      N       0.7501340409     0.3320418026    -0.3907056028
    6      C      -3.1107853054     2.3887151803     0.1192144393
    7      H      -1.7425737784     3.8369503502     0.2773036211
    8      C      -3.1732173852     0.9477493734    -0.1527696430
    9      H      -1.9299384417    -0.5716818699    -0.5390107251
   10      C      -4.4440106120     0.2856800021    -0.1742195608
   11      C      -5.5692228652     1.0246244873     0.0728544685
   12      C      -5.5065865663     2.4410588644     0.3508579937
   13      C      -4.3170647331     3.1169375302     0.3783708663
   14      C       2.0533343638     2.2113059456     0.0249405327
   15      H       0.9449820165     3.7925018634     0.1981733101
   16      C       2.0201871718     0.7621324422    -0.1417885037
   17      H       0.6067519332    -0.6755011648    -0.3761954330
   18      C       3.1872992455     0.0506112133     0.0406613931
   19      C       4.4175318167     0.7250944697     0.3950485141
   20      C       4.5057981835     2.0707053346     0.5379589615
   21      C       3.3453840471     2.9706221452     0.2163139321
   22      H      -4.2652162743     4.1823918964     0.5843455344
   23      H      -6.5429266886     0.5429304489     0.0646640069
   24      H      -6.4350426588     2.9723679150     0.5393511445
   25      H      -4.4893818359    -0.7800524879    -0.3800345912
   26      H       3.1804411782    -1.0343167375    -0.0292745719
   27      H       5.2963933557     0.1071831746     0.5618814513
   28      H       5.4394920917     2.5549380710     0.8093647956
   29      H       3.5714468532     3.4388801991    -0.7664009683
   30      O       3.2263100269     3.9943772545     1.1826052359
   31      O       2.2909681694     5.0189871326     0.6432266984
 ----------------------------------------------------------------
 Nuclear Repulsion Energy =  1782.9158667977 hartrees
 There are       78 alpha and       78 beta electrons
 Requested basis set is 6-31+G(d)
 There are 122 shells and 402 basis functions

 Total QAlloc Memory Limit   2048 MB
 Mega-Array Size       251 MB
 MEM_STATIC part       256 MB
No default van der Waals radius is available for Z = 28
	Found R = 1.6300 A in the $van_der_waals section
Discretize the solute cavity surface with Lebedev spheres
	Using 194 Lebedev grid points for each H atom
	Using 194 Lebedev grid points for other atoms
	Atomic van der Waals radii will be scaled by 1.20
 Serial switch compute.
 Remove points where switching function is < 1.0e-08
 Keep 2553 surface tesserae and discard 3461 interior tesserae
 Molecular Surface Area = 291.081 Angst**2
 A cutoff of  1.0D-12 yielded   5524 shell pairs
 There are     64190 function pairs (     65198 Cartesian)
 
 -------------------------------------------------------
 OpenMP Integral Computing Module                       
 Release: version 1.0, May 2013, Q-Chem Inc. Pittsburgh 
 -------------------------------------------------------
 Integral Job Info:
 Integral job number is                      11
 Integral operator is                         1
 short-range coefficients                     0
 long-range coefficients              100000000
 Omega coefficients                           0
 if combine SR and LR in K                    0
 Integral screening is                        0
 Integral computing path is                   2
 max size of driver memory is            800000
 size of driver memory is                776718
 size of scratch memory is             15346240
 max col of scratch BK array              10000
 max len of scratch array in speh3          662
 max len of scratch index in speh4           32
 max int batch size is                      520
 min int batch size is                       52
 fixed nKL is                                52
 max L of basis functions is                  3
 order of int derivative is                   0
 number of shells is                        122
 number of basis is                         405
 number of cartesian basis is               405
 number of contracted shell pairs          5524
 number of primitive shell pairs          18109
 maxK2 (contraction) of shell pair           36
 max number of K2 of shell pair               1
 max number of CS2 of shell pair            716
 max number of PS2 of shell pair           4296
 mem total for path MDJ                  150792
 -------------------------------------------------------
 Smallest overlap matrix eigenvalue = 1.14E-06
 Guess from superposition of atomic densities
 Warning:  Energy on first SCF cycle will be non-variational
 A restricted hybrid HF-DFT SCF calculation will be
 performed using Pulay DIIS extrapolation
 Polarizable Continuum solvation model will be applied
 Exchange:     0.2000 Hartree-Fock + 0.0800 Slater + 0.7200 B88
 Correlation:  0.1900 VWN1RPA + 0.8100 LYP
 Using Euler-Maclaurin-Lebedev (75,302) quadrature formula
 SCF converges when DIIS error is below 1.0E-08
 using 2 threads for integral computing 
 -------------------------------------------------------
 OpenMP BLAS3 based DFT computing Module                
 Release: version 1.0, May 2013, Q-Chem Inc. Pittsburgh 
 -------------------------------------------------------
 ---------------------------------------
  Cycle       Energy         DIIS Error
 ---------------------------------------
    1   -2346.1948559555      3.68E-02
    2   -2341.7925594848      3.73E-03
    3   -2340.5975496508      7.73E-03
    4   -2341.8355047061      3.69E-03
    5   -2342.0282225157      1.78E-03
    6   -2341.9798594582      3.03E-03
    7   -2342.0701003236      6.83E-04
    8   -2342.0775293482      1.57E-04
    9   -2342.0778178688      1.26E-04
   10   -2342.0780633199      5.92E-05
   11   -2342.0781172894      2.05E-05
   12   -2342.0781302432      9.22E-06
   13   -2342.0781351146      4.25E-06
   14   -2342.0781356931      1.83E-06
   15   -2342.0781357703      8.03E-07
   16   -2342.0781357839      2.93E-07
   17   -2342.0781357854      1.66E-07
   18   -2342.0781357860      7.21E-08
   19   -2342.0781357861      3.12E-08
   20   -2342.0781357861      7.94E-09 Convergence criterion met
 ---------------------------------------

************** Final PCM Free Energy Summary **************
 G_electrostatic  =      -0.07411865 hartree =     -46.51015608 kcal/mol
 G_cavitation     =       0.00000000 hartree =       0.00000000 kcal/mol
 G_dispersion     =       0.00000000 hartree =       0.00000000 kcal/mol
 G_repulsion      =       0.00000000 hartree =       0.00000000 kcal/mol
 --------------------------------------------------
 Non-electrostatic Free Energy =       0.00000000 hartree =       0.00000000 kcal/mol
 Total                         =      -0.07411865 hartree =     -46.51015608 kcal/mol
 --------------------------------------------------
 SCF Energy (H0 + V/2)                       =   -2342.07813579 
 Solute Internal Energy (H0)                 =   -2342.00401713 
 Total Free Energy (H0 + V/2 + non-elec)     =   -2342.07813579 hartree
                                             = -1469676.21202783 kcal/mol
***********************************************************

 SCF time:  CPU 1152.81 s  wall 617.56 s
 SCF   energy in the final basis set = -2342.0781357861
 Total energy in the final basis set = -2342.0781357861
 
 --------------------------------------------------------------
 
                    Orbital Energies (a.u.)
 --------------------------------------------------------------
 
 Alpha MOs
 -- Occupied --
******* -35.862 -31.304 -31.295 -31.270 -19.180 -19.109 -14.381
-14.379 -14.365 -14.348 -10.266 -10.265 -10.260 -10.256 -10.244
-10.222 -10.221 -10.217 -10.216 -10.216 -10.210 -10.208  -4.058
 -2.668  -2.652  -2.610  -1.050  -0.977  -0.958  -0.914  -0.891
 -0.854  -0.846  -0.803  -0.764  -0.730  -0.723  -0.708  -0.649
 -0.637  -0.609  -0.594  -0.552  -0.536  -0.532  -0.520  -0.512
 -0.496  -0.478  -0.462  -0.458  -0.452  -0.446  -0.439  -0.438
 -0.426  -0.411  -0.405  -0.392  -0.383  -0.370  -0.363  -0.357
 -0.346  -0.345  -0.342  -0.333  -0.324  -0.320  -0.306  -0.274
 -0.268  -0.263  -0.239  -0.221  -0.201  -0.193
 -- Virtual --
 -0.141  -0.082  -0.053  -0.017  -0.004   0.003   0.004   0.014
  0.017   0.022   0.032   0.035   0.037   0.042   0.048   0.054
  0.055   0.058   0.064   0.070   0.074   0.077   0.084   0.089
  0.093   0.095   0.100   0.107   0.113   0.116   0.120   0.124
  0.128   0.130   0.132   0.141   0.143   0.150   0.157   0.158
  0.160   0.164   0.170   0.175   0.177   0.179   0.179   0.183
  0.187   0.191   0.192   0.198   0.202   0.205   0.210   0.212
  0.216   0.218   0.223   0.225   0.228   0.229   0.233   0.239
  0.242   0.244   0.248   0.250   0.253   0.259   0.261   0.265
  0.267   0.270   0.273   0.276   0.280   0.282   0.287   0.293
  0.299   0.304   0.306   0.310   0.314   0.319   0.320   0.324
  0.330   0.335   0.340   0.346   0.347   0.357   0.371   0.374
  0.381   0.388   0.393   0.399   0.411   0.419   0.428   0.433
  0.437   0.447   0.454   0.463   0.475   0.482   0.519   0.532
  0.559   0.574   0.581   0.607   0.635   0.645   0.660   0.665
  0.674   0.680   0.699   0.709   0.722   0.726   0.731   0.736
  0.740   0.744   0.745   0.758   0.766   0.770   0.775   0.794
  0.811   0.826   0.831   0.863   0.878   0.882   0.899   0.905
  0.916   0.933   0.935   0.942   0.950   0.956   0.961   0.965
  0.976   0.981   0.992   1.001   1.012   1.034   1.039   1.052
  1.057   1.068   1.075   1.090   1.095   1.108   1.125   1.127
  1.156   1.159   1.171   1.182   1.186   1.212   1.216   1.229
  1.234   1.242   1.250   1.265   1.270   1.283   1.297   1.305
  1.316   1.317   1.325   1.341   1.358   1.358   1.377   1.384
  1.392   1.409   1.413   1.417   1.426   1.453   1.456   1.469
  1.478   1.492   1.499   1.504   1.532   1.534   1.546   1.567
  1.581   1.609   1.639   1.653   1.677   1.706   1.717   1.731
  1.745   1.770   1.777   1.799   1.815   1.825   1.838   1.854
  1.860   1.890   1.910   1.913   1.922   1.939   1.944   1.953
  1.967   1.984   1.996   1.999   2.001   2.005   2.028   2.036
  2.055   2.066   2.075   2.094   2.103   2.110   2.121   2.148
  2.166   2.175   2.187   2.193   2.215   2.237   2.254   2.256
  2.266   2.273   2.285   2.295   2.300   2.318   2.344   2.356
  2.371   2.416   2.447   2.466   2.480   2.487   2.494   2.532
  2.547   2.581   2.599   2.606   2.607   2.630   2.631   2.658
  2.665   2.684   2.710   2.722   2.739   2.743   2.804   2.829
  2.843   2.866   2.912   2.932   2.944   2.982   2.984   2.986
  3.015   3.040   3.160   3.199   3.242   3.270   3.318   3.368
  3.399   4.009   4.158   4.222   4.236   4.276   4.286   4.305
  4.325   4.343   4.404   4.434   4.452   4.461   4.470   4.487
  4.553   4.760   4.821  33.068
 --------------------------------------------------------------
 
          Ground-State Mulliken Net Atomic Charges

     Atom                 Charge (a.u.)
  ----------------------------------------
      1 Ni                    0.511964
      2 N                    -0.635177
      3 N                    -0.652989
      4 N                    -0.582267
      5 N                    -0.768674
      6 C                     2.015176
      7 H                     0.468121
      8 C                     1.981288
      9 H                     0.469276
     10 C                    -1.859907
     11 C                    -0.348891
     12 C                    -0.361634
     13 C                    -1.768596
     14 C                     1.003126
     15 H                     0.482887
     16 C                     1.455700
     17 H                     0.437278
     18 C                    -1.453063
     19 C                    -0.242550
     20 C                    -0.209354
     21 C                    -0.814191
     22 H                     0.237337
     23 H                     0.228769
     24 H                     0.228388
     25 H                     0.236785
     26 H                     0.228204
     27 H                     0.216584
     28 H                     0.222923
     29 H                     0.246556
     30 O                    -0.223649
     31 O                    -0.749420
  ----------------------------------------
  Sum of atomic charges =     0.000000

 -----------------------------------------------------------------
                    Cartesian Multipole Moments
 -----------------------------------------------------------------
    Charge (ESU x 10^10)
                 0.0000
    Dipole Moment (Debye)
         X     -14.2774      Y     -13.7910      Z      -3.4664
       Tot      20.1507
    Quadrupole Moments (Debye-Ang)
        XX     -82.0843     XY     -58.7558     YY    -182.0184
        XZ     -11.1184     YZ     -14.0340     ZZ    -128.8223
    Octopole Moments (Debye-Ang^2)
       XXX    -149.7787    XXY    -260.6127    XYY    -275.8590
       YYY   -1055.2286    XXZ     -24.7166    XYZ     -64.7672
       YYZ     -91.0620    XZZ      12.8148    YZZ    -253.2891
       ZZZ     -51.4799
    Hexadecapole Moments (Debye-Ang^3)
      XXXX   -6010.8737   XXXY    -713.6066   XXYY   -2240.6848
      XYYY   -1603.6589   YYYY   -6172.3590   XXXZ    -237.6444
      XXYZ    -135.0523   XYYZ    -327.5450   YYYZ    -587.8199
      XXZZ   -1469.3811   XYZZ     -79.6971   YYZZ    -837.7990
      XZZZ    -156.5209   YZZZ    -248.2352   ZZZZ    -278.1134
 -----------------------------------------------------------------
 Calculating MO derivatives via CPSCF
 CPSCF will be done in 4 segments to save memory.
Nuc1stDrvofVij
 Computing fast CPCM-SWIG hessian.
   1         0          24      0.168701    0.018858
   2         0          24      0.027583    0.003832
   3         0          24      0.004382    0.000355
   4         0          24      0.000960    0.000078
   5         0          24      0.000161    0.000013
   6        14          10      0.000014    0.000002
   7        24           0      0.000000    0.000000    Roots Converged
   1         0          24      0.154155    0.023861
   2         0          24      0.043712    0.004635
   3         0          24      0.005107    0.000589
   4         0          24      0.000982    0.000118
   5         0          24      0.000198    0.000027
   6        14          10      0.000029    0.000006
   7        24           0      0.000000    0.000000    Roots Converged
   1         0          24      0.083614    0.009675
   2         0          24      0.026273    0.002935
   3         0          24      0.003268    0.000394
   4         0          24      0.000624    0.000085
   5         4          20      0.000122    0.000021
   6        15           9      0.000018    0.000004
   7        24           0      0.000000    0.000000    Roots Converged
   1         0          24      0.263227    0.142237
   2         0          24      0.090863    0.063969
   3         0          24      0.025137    0.018588
   4         1          23      0.006415    0.004734
   5        12          12      0.001583    0.001227
   6        21           3      0.000356    0.000295
   7        21           3      0.000066    0.000052
   8        21           3      0.000013    0.000010
   9        23           1      0.000002    0.000002
  10        24           0      0.000000    0.000000    Roots Converged
PCM in make_fx.C
PCM in make_fx.C
PCM in make_fx.C
PCM in make_fx.C
 Calculating analytic Hessian of the SCF energy
 Polarizability Matrix (a.u.)
            1           2           3
    1-1256.4724754  79.7637028 -14.0961084
    2  79.7637028-328.3379812 -23.0654292
    3 -14.0961084 -23.0654292-172.1308621

 Q-Chem warning in module /home/akohn/tests/qchem.20160914/qchem/drvman/find_multipole_der.C, line 180:

 Net Molecular Charges From Derivative of Dipole Moment are Inconsistent

 Derivative of Dipole Moment Matrix (a.u.)
            1           2           3
    1   0.4630048  -0.0194692   0.0308520
    2  -0.3804734   0.7573502   0.0522817
    3  -0.2517883   0.0895873   0.4898767
    4   3.3901756  -0.6655321  -0.0155770
    5   0.7351336  -0.5429400   0.0358833
    6  -0.3733075   0.1499377  -0.4187830
    7   2.8497392  -0.0311439   0.1005069
    8  -1.1711673  -0.3829216  -0.0269004
    9  -0.2425170  -0.0334102  -0.4815888
   10  -1.2858216   0.2594601  -0.1422729
   11  -0.3038398  -0.7603359  -0.0230932
   12  -0.1104239  -0.0980272  -0.4366514
   13  -1.1930656  -0.1942836  -0.2019525
   14   0.8137425  -0.5247609  -0.1108737
   15   0.8129569  -0.2883672  -0.6311889
   16  -3.1229535   0.7360188  -0.0074290
   17  -2.6587321   0.2352239  -0.0288188
   18  -0.0625245  -0.1044054   0.1545130
   19   0.3665028   0.0688435   0.0191322
   20  -0.2011388   0.2708292  -0.0325931
   21   0.0641278  -0.0613543   0.3469564
   22  -2.6493477  -0.1339058  -0.1525758
   23   2.7521238  -0.2423636  -0.0358688
   24   0.6594543  -0.0497997   0.1796492
   25   0.3103177  -0.1114491  -0.0162438
   26   0.1668428   0.2200118  -0.0177973
   27  -0.0173064  -0.0108591   0.3604150
   28   1.8644882   0.1740421   0.0728091
   29   0.3014024   0.0241233   0.0561862
   30  -0.1394565   0.0289942  -0.1759670
   31  -1.4165522   0.1746903  -0.0075308
   32   2.5315925   0.0513996   0.0456535
   33   0.6271788   0.0192041  -0.1199342
   34  -1.7123611   0.0871309  -0.0203909
   35  -2.4549215   0.3795359   0.0889511
   36  -0.3514215   0.0944037  -0.1212742
   37   1.9803680  -0.4947365  -0.0523238
   38  -0.4041599   0.1155920   0.0345171
   39  -0.2842289   0.0973440  -0.1564303
   40   0.8317538  -0.2807861   0.0131191
   41  -1.1223589   0.5941018  -0.1635014
   42  -0.1833288   0.0006966   0.1025364
   43   0.2575951   0.1608366   0.0474625
   44   0.4179208   0.7850658   0.1013381
   45   0.1081047   0.1231645   0.3418090
   46  -0.2656702   0.5360862   0.2516610
   47   2.5378186  -0.4680475   0.1614376
   48  -0.0880702   0.2001328   0.1672458
   49   0.0844459   0.0722184  -0.0115227
   50  -0.2353723   0.1489663   0.0014929
   51  -0.2669074   0.0921776   0.3735124
   52   1.1310549  -0.2878575  -0.0017543
   53   0.2608585   0.3156087   0.1239743
   54   0.5822003  -0.0783498  -0.1591690
   55   0.1536836   0.1180281   0.1408532
   56  -1.6202723   0.0673575  -0.0103600
   57  -0.1925415   0.0475231  -0.1333675
   58  -0.8932524  -0.0252773   0.0798083
   59   0.6933273  -0.0829674  -0.0824437
   60  -0.5947806  -0.1653455  -0.2768726
   61  -0.2150232   0.0166961  -0.1353330
   62   0.2233932   0.5639593   0.1869484
   63   0.5015139   0.4237577   0.7049956
   64   0.0766981  -0.0324131   0.0025667
   65   0.1086829  -0.0456556  -0.0455204
   66   0.0392430  -0.0443776   0.1847962
   67  -0.1299628  -0.0747583   0.0028481
   68  -0.0843458   0.0634202  -0.0153253
   69   0.0129845  -0.0187230   0.1758773
   70  -0.1166488   0.0879372   0.0339829
   71   0.0904791   0.0514288  -0.0331399
   72   0.0410215  -0.0314735   0.1714229
   73   0.0663923   0.0198814   0.0117341
   74  -0.1220917  -0.0308047  -0.0451940
   75  -0.0197735  -0.0432185   0.1857777
   76   0.1545575  -0.0400799  -0.0204400
   77   0.0243144  -0.0860086  -0.0279219
   78  -0.0664796  -0.0234268   0.1793178
   79  -0.2234495   0.1137498  -0.0506415
   80   0.1185900   0.0150078   0.0120856
   81  -0.0754986   0.0289744   0.1816400
   82  -0.0972801  -0.0602165  -0.0694179
   83  -0.1519138   0.0586081  -0.0215320
   84   0.0803169   0.0214296   0.1953714
   85   0.3467223   0.0416075   0.0555573
   86  -0.2832455   0.0438205   0.1016792
   87  -0.0324586  -0.0859896  -0.1128342
   88  -0.4086149   0.0010647  -0.0746919
   89  -0.0308978  -0.5836823   0.0188518
   90  -0.1167382  -0.1841386  -0.6219632
   91  -0.5975219  -0.2160311   0.1172763
   92  -0.5513237  -1.0111060  -0.3005666
   93  -0.0593882  -0.0961202  -0.6495150
 -----------------------------------------
 Net:   0.00011   0.00011   0.00008
 -----------------------------------------

 
 Direct stationary perturbation theory relativistic correction:
 
 rels  =       6.775837270258
 relv  =     -24.270675405315
 rel2e =       5.173372247256
 E_rel =     -12.321465887800
 
hessian_smooth3
 Computing fast CPCM-SWIG hessian.
calculate q S^(xy) q
 Hessian of the SCF Energy
            1           2           3           4           5           6
    1   0.4515957  -0.0157244  -0.0075651  -0.0944918   0.0249073   0.0063850
    2  -0.0157244   0.3420230   0.0401827   0.0309005  -0.0967980  -0.0152136
    3  -0.0075651   0.0401827   0.1061958   0.0075084  -0.0108025  -0.0397045
    4  -0.0944918   0.0309005   0.0075084   0.6089577   0.1336713  -0.0204066
    5   0.0249073  -0.0967980  -0.0108025   0.1336713   0.7051491   0.1125547
    6   0.0063850  -0.0152136  -0.0397045  -0.0204066   0.1125547   0.1194382
    7  -0.0927333  -0.0203385  -0.0003536  -0.0093602  -0.0104368  -0.0002615
    8  -0.0256150  -0.0866601  -0.0095055   0.0140410  -0.0181211  -0.0051336
    9  -0.0023285  -0.0054138  -0.0347490   0.0045233  -0.0030835   0.0072630
   10  -0.0901092  -0.0312748  -0.0041135  -0.0086282  -0.0030529   0.0002031
   11  -0.0185052  -0.0905197  -0.0110529   0.0048489   0.0091336   0.0011230
   12  -0.0033594  -0.0124540  -0.0277909   0.0016888   0.0010978   0.0011594
   13  -0.1056594   0.0363092   0.0107686   0.0061863   0.0047271  -0.0000871
   14   0.0419765  -0.1101746  -0.0133578   0.0022572   0.0028514  -0.0001822
   15   0.0096564  -0.0070151  -0.0289759  -0.0074405  -0.0001151   0.0059005
   16  -0.0072303   0.0089053  -0.0000679  -0.3656155  -0.1178864   0.0085897
   17  -0.0241219   0.0118853   0.0030180  -0.0727167  -0.1603095  -0.0119581
   18  -0.0037792   0.0049034  -0.0035754   0.0196747  -0.0108319  -0.0552274
   19   0.0100755   0.0094562   0.0027975  -0.0732340  -0.0171658  -0.0012117
   20  -0.0013261  -0.0049193  -0.0015344  -0.0509756  -0.4045922  -0.0769508
   21  -0.0004165  -0.0007352   0.0002235  -0.0093515  -0.0830847  -0.0451670
   22  -0.0475906  -0.0135646  -0.0017296  -0.0087557  -0.0406280  -0.0085521
   23   0.0106083  -0.0082319   0.0012109  -0.0664719  -0.0527327  -0.0034457
   24   0.0038825  -0.0003724  -0.0083216  -0.0131968  -0.0024414  -0.0054506
   25   0.0097277  -0.0101489  -0.0021479  -0.0032839  -0.0000212   0.0001545
   26   0.0005093  -0.0043545  -0.0005257  -0.0015166   0.0023491   0.0005543
   27  -0.0009064   0.0000664   0.0004639   0.0003757   0.0003309  -0.0009952
   28  -0.0040688   0.0059350   0.0031615  -0.0102173   0.0034377   0.0015517
   29   0.0085172   0.0050201  -0.0013034  -0.0004217  -0.0096388  -0.0020667
   30   0.0020947  -0.0019088   0.0080302   0.0006466  -0.0025253  -0.0005882
   31  -0.0048251  -0.0014682   0.0000406   0.0061325   0.0032614  -0.0000953
   32   0.0037734   0.0033085   0.0010184  -0.0160745  -0.0033417   0.0014897
   33   0.0015656   0.0005558   0.0019126  -0.0036243  -0.0005437  -0.0011361
   34  -0.0027519   0.0021139   0.0002056   0.0201260   0.0089648  -0.0001602
   35  -0.0013765  -0.0010970  -0.0010649   0.0289991   0.0015748  -0.0040717
   36   0.0004789  -0.0005834  -0.0000652   0.0039952  -0.0016187   0.0035883
   37   0.0145830  -0.0027819   0.0026898  -0.0745799   0.0067453   0.0133771
   38  -0.0036991   0.0292119  -0.0011287  -0.0035229   0.0229669   0.0027037
   39   0.0011268  -0.0000505   0.0285169   0.0113361   0.0017590   0.0102363
   40  -0.0348668  -0.0073787  -0.0051590   0.0010545  -0.0003813  -0.0015874
   41  -0.0037182   0.0199731   0.0027114  -0.0003630  -0.0005614   0.0003481
   42  -0.0020123   0.0038370   0.0060648   0.0003105   0.0002214   0.0012546
   43   0.0063661  -0.0056912  -0.0012078   0.0016546   0.0008348   0.0003227
   44  -0.0052660   0.0003798   0.0000594  -0.0003961  -0.0001451   0.0000837
   45  -0.0015767   0.0004086  -0.0021044  -0.0001064   0.0000401  -0.0004677
   46  -0.0307179  -0.0072752  -0.0045931   0.0046007   0.0058194   0.0019286
   47   0.0246657   0.0021707   0.0056996  -0.0056469  -0.0042401  -0.0002730
   48   0.0001611  -0.0001811  -0.0046494   0.0029141  -0.0014976   0.0002655
   49   0.0083778   0.0116502  -0.0015377  -0.0024086  -0.0004376   0.0006337
   50  -0.0020594  -0.0066810   0.0006689   0.0018308   0.0012245  -0.0004345
   51  -0.0014904  -0.0030177  -0.0018571   0.0029164  -0.0007899   0.0014903
   52   0.0107777   0.0040273  -0.0017196  -0.0039284  -0.0028632   0.0000445
   53  -0.0166208   0.0033065  -0.0049861  -0.0001755   0.0011980   0.0002638
   54  -0.0015057  -0.0015669   0.0027707  -0.0020788  -0.0008507   0.0014849
   55  -0.0014777   0.0016426   0.0004926   0.0001990   0.0009301   0.0006260
   56  -0.0027122   0.0025197  -0.0002613   0.0058855   0.0022491  -0.0005547
   57  -0.0007954   0.0004972  -0.0002657   0.0005592   0.0009583  -0.0014734
   58  -0.0002552   0.0022206   0.0006895   0.0041194   0.0009472  -0.0004416
   59   0.0025515  -0.0016468   0.0006065  -0.0025079  -0.0016494   0.0003644
   60   0.0002487  -0.0001716  -0.0006493   0.0022436   0.0004784  -0.0006893
   61   0.0026218   0.0036435   0.0009456   0.0008428  -0.0001666  -0.0000271
   62  -0.0012333  -0.0066970  -0.0018019  -0.0017893  -0.0002193   0.0006182
   63  -0.0011414  -0.0025070   0.0011257  -0.0020646  -0.0003928   0.0000966
   64   0.0001466   0.0001379   0.0000239   0.0025481  -0.0003076  -0.0004554
   65   0.0002815   0.0000375   0.0000987  -0.0011263   0.0013516   0.0007751
   66   0.0001155   0.0001060  -0.0004770  -0.0006293   0.0006704  -0.0015437
   67  -0.0000963   0.0003013  -0.0000376   0.0003543  -0.0000013  -0.0000589
   68  -0.0000155  -0.0002170   0.0001654  -0.0002177   0.0001633   0.0000575
   69  -0.0000728   0.0002278  -0.0009937  -0.0000160   0.0000308   0.0000457
   70  -0.0001011  -0.0003792  -0.0001124  -0.0008605   0.0013872   0.0002300
   71   0.0000121  -0.0001621   0.0002228  -0.0006648   0.0007570   0.0004101
   72   0.0000264   0.0000891  -0.0010440  -0.0003661   0.0003017  -0.0008483
   73   0.0000782  -0.0002078  -0.0000194  -0.0001617  -0.0019431  -0.0004062
   74  -0.0003667  -0.0000848   0.0001125   0.0002427  -0.0006357  -0.0001816
   75   0.0000168   0.0000866  -0.0005035   0.0000105  -0.0000021   0.0000218
   76   0.0002247   0.0001248   0.0000466  -0.0002013  -0.0001516  -0.0001335
   77   0.0002307   0.0000270   0.0000542  -0.0002818  -0.0000054  -0.0000305
   78  -0.0000074   0.0000567  -0.0000933   0.0004000  -0.0001420   0.0006124
   79  -0.0001052  -0.0003517  -0.0001195   0.0007253   0.0001808  -0.0000574
   80  -0.0000276  -0.0001771  -0.0000408  -0.0000773   0.0000455   0.0000161
   81  -0.0000513  -0.0000723  -0.0003259   0.0001266   0.0000565  -0.0000718
   82  -0.0000734   0.0002766   0.0001244   0.0002444   0.0000345  -0.0001340
   83   0.0000361  -0.0003428  -0.0001142   0.0003601   0.0001097  -0.0000837
   84   0.0000074   0.0001959  -0.0000705  -0.0004573  -0.0002512   0.0005101
   85  -0.0004277   0.0000380  -0.0009952  -0.0008583  -0.0002827   0.0000993
   86   0.0000056   0.0000780  -0.0005563   0.0006831   0.0001150  -0.0002942
   87   0.0001898   0.0002580   0.0000367   0.0001439   0.0000544  -0.0000737
   88   0.0000844  -0.0006190   0.0021475  -0.0007313   0.0000653   0.0002598
   89  -0.0000198  -0.0003341   0.0004920   0.0006043   0.0004051  -0.0006533
   90  -0.0003568  -0.0002595   0.0005149   0.0001074   0.0001953  -0.0001775
   91   0.0029443  -0.0004537  -0.0002100  -0.0003866  -0.0001641  -0.0003082
   92   0.0043598  -0.0008331   0.0017159   0.0006145   0.0013517   0.0001745
   93   0.0014004   0.0000378   0.0003590   0.0002445   0.0002303   0.0002537
            7           8           9          10          11          12
    1  -0.0927333  -0.0256150  -0.0023285  -0.0901092  -0.0185052  -0.0033594
    2  -0.0203385  -0.0866601  -0.0054138  -0.0312748  -0.0905197  -0.0124540
    3  -0.0003536  -0.0095055  -0.0347490  -0.0041135  -0.0110529  -0.0277909
    4  -0.0093602   0.0140410   0.0045233  -0.0086282   0.0048489   0.0016888
    5  -0.0104368  -0.0181211  -0.0030835  -0.0030529   0.0091336   0.0010978
    6  -0.0002615  -0.0051336   0.0072630   0.0002031   0.0011230   0.0011594
    7   0.6044307  -0.1072742  -0.0572403   0.0009618  -0.0081491  -0.0012041
    8  -0.1072742   0.7228476   0.1300459  -0.0051563   0.0027904  -0.0003511
    9  -0.0572403   0.1300459   0.1243063  -0.0031286  -0.0010821   0.0075591
   10   0.0009618  -0.0051563  -0.0031286   0.6248090  -0.1246900   0.0218568
   11  -0.0081491   0.0027904  -0.0010821  -0.1246900   0.6675558   0.0914117
   12  -0.0012041  -0.0003511   0.0075591   0.0218568   0.0914117   0.0560465
   13  -0.0076135   0.0041557   0.0016854   0.0115344   0.0032566  -0.0007511
   14  -0.0063415   0.0100119   0.0005189  -0.0097187  -0.0091566  -0.0038187
   15  -0.0048794   0.0020449   0.0068984  -0.0020697  -0.0031404   0.0081441
   16  -0.0012217   0.0383035   0.0079367   0.0019981  -0.0011260  -0.0003531
   17   0.0607110  -0.0600064  -0.0155237  -0.0006487   0.0008490  -0.0006708
   18   0.0118819  -0.0123686  -0.0097748  -0.0007303  -0.0005791   0.0040653
   19  -0.0029369   0.0008267   0.0001606   0.0014937  -0.0014757  -0.0002503
   20   0.0014307   0.0018854   0.0003405  -0.0022572   0.0009866   0.0002671
   21  -0.0001045   0.0002257  -0.0004897  -0.0008138   0.0004605  -0.0003723
   22  -0.3592824   0.1152242   0.0444367   0.0001884  -0.0022961  -0.0005856
   23   0.0797609  -0.1775385  -0.0295668  -0.0017472  -0.0039356   0.0001134
   24   0.0358032  -0.0317108  -0.0627330  -0.0000775  -0.0001361  -0.0030243
   25  -0.0774869  -0.0123345   0.0009872  -0.0023476   0.0000556   0.0002721
   26   0.0211579  -0.4117292  -0.0760469  -0.0004773   0.0007991   0.0003084
   27   0.0080912  -0.0738410  -0.0462136   0.0006101   0.0001087  -0.0002970
   28  -0.0770302   0.0017861   0.0066369  -0.0007560   0.0008614   0.0000257
   29   0.0130770   0.0236086   0.0012848   0.0007191   0.0007723  -0.0000907
   30   0.0094909   0.0017784   0.0112254   0.0003873   0.0000965   0.0002496
   31   0.0161475  -0.0110599  -0.0029265   0.0003214  -0.0008621  -0.0001408
   32  -0.0299036   0.0046122   0.0018869  -0.0012043   0.0003837   0.0001892
   33  -0.0070142   0.0010608   0.0049897  -0.0003193   0.0002545  -0.0005439
   34   0.0061980  -0.0039990  -0.0011375   0.0008851  -0.0004308  -0.0000663
   35   0.0143603  -0.0051968  -0.0014099   0.0007199  -0.0007798  -0.0002466
   36   0.0022763  -0.0003488  -0.0017992   0.0000983  -0.0001904   0.0004471
   37  -0.0074029  -0.0025744   0.0007897  -0.0016676   0.0009174   0.0001282
   38  -0.0044328  -0.0090070  -0.0022758   0.0008810   0.0001843   0.0003846
   39   0.0003128  -0.0016278  -0.0011189   0.0004600   0.0002039  -0.0014794
   40   0.0003555  -0.0035278   0.0010114  -0.4292173   0.1721709  -0.0107688
   41   0.0002533  -0.0010405  -0.0007814   0.1501629  -0.1933436  -0.0145098
   42   0.0004810   0.0000826  -0.0003127  -0.0122985  -0.0131757  -0.0333085
   43  -0.0018435   0.0001714  -0.0001498  -0.0499079  -0.0309392  -0.0050798
   44   0.0009434   0.0010327   0.0001659  -0.0025105  -0.3366856  -0.0537683
   45   0.0003704   0.0002378   0.0006232  -0.0004659  -0.0565947  -0.0289162
   46   0.0078841  -0.0024466  -0.0003824  -0.0261956   0.0504815   0.0081971
   47  -0.0087296   0.0019862   0.0009086   0.0330246  -0.0472726  -0.0036004
   48   0.0016858  -0.0007418   0.0012341  -0.0000898   0.0031383  -0.0043404
   49   0.0024415  -0.0018367  -0.0006943  -0.0017052   0.0003438   0.0002323
   50  -0.0013442   0.0008570   0.0001732   0.0009740   0.0007996   0.0003240
   51   0.0013567  -0.0000618  -0.0033372   0.0012679   0.0005171  -0.0007978
   52  -0.0071902   0.0034113   0.0013047   0.0152592  -0.0123965  -0.0002172
   53   0.0003710   0.0000005  -0.0003457   0.0036816  -0.0100241   0.0005481
   54  -0.0020962   0.0009311  -0.0008986   0.0029353  -0.0030974   0.0024641
   55   0.0008008  -0.0003314  -0.0004033  -0.0016966  -0.0013221  -0.0003808
   56   0.0063093  -0.0021399  -0.0003968  -0.0068933   0.0028419  -0.0001442
   57   0.0010954  -0.0004489   0.0009301  -0.0017776   0.0004337   0.0001889
   58   0.0034947  -0.0013398  -0.0002804  -0.0059447  -0.0029011  -0.0014935
   59  -0.0034001   0.0005977  -0.0001671   0.0010783  -0.0039487   0.0016011
   60   0.0022841  -0.0007501   0.0003837  -0.0037358   0.0004025   0.0004770
   61   0.0015448  -0.0000681  -0.0005675  -0.0393829  -0.0105567  -0.0015214
   62  -0.0001558   0.0020941  -0.0001024   0.0101253   0.0262830  -0.0017134
   63  -0.0020318   0.0002442  -0.0008122   0.0080142  -0.0054704   0.0139501
   64   0.0000239   0.0018304   0.0003524   0.0000429   0.0000003   0.0000054
   65  -0.0002519  -0.0006697  -0.0001743  -0.0000785  -0.0000370  -0.0000000
   66  -0.0000133  -0.0003731   0.0000047  -0.0000547   0.0000060  -0.0000559
   67  -0.0008949  -0.0012680  -0.0002572  -0.0000039  -0.0000749  -0.0000023
   68   0.0008047   0.0008144   0.0003413   0.0000593   0.0000649  -0.0000007
   69   0.0002573   0.0004830  -0.0010872  -0.0000529  -0.0000026   0.0000536
   70   0.0002983  -0.0000255   0.0000014   0.0000353  -0.0000160   0.0000059
   71   0.0002541   0.0001714  -0.0000147   0.0000244  -0.0000010  -0.0000098
   72  -0.0000286   0.0000399   0.0000799   0.0000073  -0.0000059   0.0000415
   73   0.0025975   0.0003181  -0.0002917   0.0000492   0.0001100   0.0000320
   74   0.0010212   0.0011743   0.0005244   0.0000429  -0.0000222  -0.0000201
   75  -0.0002214   0.0005446  -0.0014699   0.0000165  -0.0000274   0.0000580
   76  -0.0002519   0.0000026   0.0001326   0.0002667   0.0019058   0.0005728
   77  -0.0002222   0.0000017   0.0000396   0.0000242  -0.0011245  -0.0000488
   78   0.0002546   0.0000013  -0.0005195   0.0000023   0.0006692  -0.0010215
   79   0.0007211  -0.0001866  -0.0000341  -0.0004303   0.0002951  -0.0000360
   80  -0.0000011   0.0000073   0.0000035   0.0002464   0.0002855   0.0000215
   81   0.0001404  -0.0000633   0.0000270   0.0002338  -0.0000886   0.0001401
   82   0.0001279  -0.0001480   0.0001519  -0.0013014  -0.0010164  -0.0004957
   83   0.0004340  -0.0000774   0.0000353   0.0009755   0.0010480  -0.0000162
   84  -0.0005328   0.0003041  -0.0006481  -0.0008302  -0.0006466   0.0015324
   85  -0.0011067   0.0002522   0.0003350   0.0025684  -0.0001491  -0.0028481
   86   0.0005792  -0.0001439   0.0003832  -0.0005392   0.0000759  -0.0017680
   87   0.0002909   0.0000687   0.0000296  -0.0027374   0.0014473   0.0005903
   88  -0.0008368  -0.0003107  -0.0007317   0.0037135   0.0002060   0.0012388
   89   0.0004056  -0.0006648   0.0004442   0.0055219   0.0005557   0.0047046
   90   0.0000158  -0.0004115   0.0001997  -0.0000808   0.0028122   0.0025060
   91  -0.0008282  -0.0008514   0.0000769  -0.0047997  -0.0185465  -0.0046932
   92  -0.0008690  -0.0014955  -0.0007213  -0.0180045  -0.0185531  -0.0077437
   93  -0.0000804  -0.0003465   0.0002328  -0.0027459  -0.0078153   0.0022614
           13          14          15          16          17          18
    1  -0.1056594   0.0419765   0.0096564  -0.0072303  -0.0241219  -0.0037792
    2   0.0363092  -0.1101746  -0.0070151   0.0089053   0.0118853   0.0049034
    3   0.0107686  -0.0133578  -0.0289759  -0.0000679   0.0030180  -0.0035754
    4   0.0061863   0.0022572  -0.0074405  -0.3656155  -0.0727167   0.0196747
    5   0.0047271   0.0028514  -0.0001151  -0.1178864  -0.1603095  -0.0108319
    6  -0.0000871  -0.0001822   0.0059005   0.0085897  -0.0119581  -0.0552274
    7  -0.0076135  -0.0063415  -0.0048794  -0.0012217   0.0607110   0.0118819
    8   0.0041557   0.0100119   0.0020449   0.0383035  -0.0600064  -0.0123686
    9   0.0016854   0.0005189   0.0068984   0.0079367  -0.0155237  -0.0097748
   10   0.0115344  -0.0097187  -0.0020697   0.0019981  -0.0006487  -0.0007303
   11   0.0032566  -0.0091566  -0.0031404  -0.0011260   0.0008490  -0.0005791
   12  -0.0007511  -0.0038187   0.0081441  -0.0003531  -0.0006708   0.0040653
   13   0.5287922   0.0826017   0.0518032  -0.0022972   0.0021825  -0.0018284
   14   0.0826017   0.7084000   0.0267267   0.0070208   0.0029072   0.0003597
   15   0.0518032   0.0267267   0.0698357   0.0057074   0.0057626   0.0017279
   16  -0.0022972   0.0070208   0.0057074   0.4711895   0.1303613  -0.0176239
   17   0.0021825   0.0029072   0.0057626   0.1303613   0.2055321   0.0269488
   18  -0.0018284   0.0003597   0.0017279  -0.0176239   0.0269488   0.0005926
   19  -0.0024417  -0.0005429  -0.0007664  -0.0012895  -0.0400115  -0.0082871
   20   0.0006972   0.0009104   0.0006701  -0.0002780  -0.0044983  -0.0009428
   21   0.0002170   0.0003262   0.0001929   0.0020884   0.0048918   0.0001041
   22   0.0018499   0.0035708   0.0062764  -0.0087842  -0.0348303  -0.0098116
   23   0.0011170  -0.0048291  -0.0065725   0.0008674  -0.0320422  -0.0085849
   24   0.0008327  -0.0010472  -0.0021967   0.0007827  -0.0081975  -0.0018110
   25   0.0030807   0.0022611  -0.0005329  -0.0026134   0.0011787   0.0010938
   26   0.0022892   0.0006824  -0.0001477   0.0074618  -0.0037750  -0.0037648
   27   0.0002893   0.0003845  -0.0013614   0.0018127  -0.0031063   0.0104192
   28   0.0007632  -0.0032625  -0.0031099   0.0751534  -0.0639285  -0.0126761
   29  -0.0018335  -0.0008601  -0.0001964  -0.0600669   0.0944409   0.0140964
   30   0.0002389   0.0009741  -0.0019607  -0.0110077   0.0131908   0.0606975
   31   0.0010858   0.0016753   0.0021684   0.0070578  -0.0239894  -0.0047558
   32  -0.0001089  -0.0033950  -0.0036840   0.0039298   0.0203802   0.0002178
   33  -0.0000773  -0.0010497  -0.0003931   0.0011144   0.0041933   0.0142812
   34   0.0003833   0.0027692   0.0027112  -0.0745666  -0.0143845   0.0063498
   35   0.0008726   0.0025400   0.0033746  -0.0320303   0.0431672   0.0120598
   36   0.0001645   0.0004185  -0.0002357   0.0022746   0.0101024   0.0048583
   37  -0.0023178  -0.0017733  -0.0036804  -0.0819433   0.0615113   0.0142765
   38   0.0012381   0.0007868   0.0009203   0.0266557  -0.1089952  -0.0151437
   39   0.0002623   0.0000684   0.0016520   0.0038903  -0.0161973  -0.0439684
   40  -0.0146668  -0.0378945  -0.0021289   0.0024223  -0.0043161   0.0021204
   41  -0.0238141  -0.0319340  -0.0057974   0.0197084  -0.0097239  -0.0001455
   42  -0.0023694  -0.0107095   0.0043265   0.0038081   0.0009421  -0.0079348
   43  -0.0015366  -0.0004768  -0.0002772   0.0000050   0.0008813   0.0000606
   44  -0.0004241  -0.0004149   0.0001175   0.0010267   0.0012973   0.0001824
   45   0.0002847   0.0002940  -0.0006746   0.0002037   0.0000429  -0.0003475
   46  -0.2751675  -0.0711808  -0.0363403   0.0045723  -0.0142475  -0.0023420
   47  -0.0600514  -0.1486316  -0.0172831  -0.0116420   0.0197458   0.0013393
   48  -0.0474546  -0.0190394  -0.0481162  -0.0046883  -0.0035363   0.0114408
   49  -0.0770502  -0.0282794  -0.0016994   0.0002939   0.0005548   0.0004816
   50  -0.0562037  -0.4260640   0.0029023  -0.0000498  -0.0043053  -0.0005679
   51   0.0007807   0.0166567  -0.0178568  -0.0019086  -0.0012570  -0.0004672
   52  -0.0796124   0.0078705  -0.0184765  -0.0079574   0.0233870   0.0015904
   53  -0.0009217   0.0141925   0.0012802  -0.0136232   0.0043275  -0.0006960
   54  -0.0158025   0.0031529  -0.0020764  -0.0010393   0.0027765  -0.0005853
   55   0.0159204   0.0054366   0.0025069  -0.0006670  -0.0003199  -0.0001577
   56   0.0171171  -0.0011733   0.0041618  -0.0059333  -0.0038130   0.0001215
   57   0.0040091   0.0008502   0.0082413  -0.0007641  -0.0006766   0.0005545
   58  -0.0039738   0.0007178   0.0005856  -0.0023563  -0.0018875   0.0002254
   59  -0.0122231  -0.0021724  -0.0039232   0.0023606   0.0015747  -0.0002360
   60  -0.0024764   0.0002088  -0.0012016  -0.0023064  -0.0015989   0.0000754
   61  -0.0007643   0.0033368  -0.0008766  -0.0032153  -0.0025143  -0.0005753
   62   0.0027636  -0.0033745   0.0005082   0.0029267   0.0010103  -0.0000915
   63  -0.0012992  -0.0002549   0.0012566   0.0021253   0.0011485   0.0007431
   64   0.0000145  -0.0000978  -0.0000094   0.0038252   0.0275364   0.0052542
   65   0.0000197  -0.0001751  -0.0001552  -0.0015197  -0.0113527  -0.0027058
   66  -0.0000214  -0.0000331   0.0000754  -0.0005819  -0.0053484   0.0022948
   67   0.0000066   0.0000979   0.0001089  -0.0000379  -0.0005337  -0.0000498
   68  -0.0000777   0.0000127  -0.0000270   0.0008483  -0.0007613  -0.0000808
   69  -0.0000124  -0.0000646   0.0001631  -0.0000160  -0.0000624  -0.0004564
   70  -0.0000093   0.0001555   0.0000753  -0.0021019  -0.0049181   0.0001748
   71  -0.0000245   0.0000311   0.0000189  -0.0034576  -0.0012258  -0.0020566
   72  -0.0000340   0.0000216  -0.0001131   0.0003257  -0.0017633   0.0096832
   73   0.0000784   0.0000960  -0.0000080  -0.0046063   0.0003150   0.0006546
   74  -0.0000335   0.0000231   0.0001524  -0.0011426   0.0016915  -0.0002180
   75  -0.0000299   0.0000492  -0.0000800   0.0003847  -0.0002466   0.0032815
   76   0.0024414  -0.0004187   0.0010490  -0.0000053   0.0006407   0.0001918
   77  -0.0010181   0.0012604   0.0000730   0.0002915  -0.0002488  -0.0000785
   78   0.0004538  -0.0001092  -0.0033923  -0.0003059  -0.0001650  -0.0002136
   79  -0.0013728   0.0012468   0.0000992  -0.0007690  -0.0001305   0.0000789
   80  -0.0004126   0.0007636   0.0000910   0.0000170  -0.0000602  -0.0000124
   81  -0.0002700   0.0004251   0.0001214  -0.0001330  -0.0000487   0.0000333
   82   0.0000292  -0.0000026   0.0000109  -0.0002179   0.0001933   0.0001092
   83  -0.0006967   0.0001986   0.0000184  -0.0004046  -0.0002227   0.0000105
   84   0.0005540  -0.0001784  -0.0000040   0.0004929   0.0003954  -0.0001383
   85   0.0007535  -0.0005674  -0.0001624   0.0009597   0.0011447   0.0001240
   86  -0.0000514  -0.0002036  -0.0000545  -0.0006406  -0.0003148   0.0001268
   87   0.0005241   0.0004546   0.0000573  -0.0001402  -0.0002881   0.0000197
   88   0.0004779  -0.0018406  -0.0002936   0.0004096  -0.0020761  -0.0007727
   89  -0.0011668  -0.0025561  -0.0001343  -0.0003823  -0.0013200  -0.0000833
   90  -0.0002453  -0.0015644   0.0000492  -0.0001915  -0.0013418  -0.0000682
   91   0.0010310  -0.0007138   0.0000339  -0.0001501  -0.0054449  -0.0010510
   92  -0.0002686  -0.0004477  -0.0005662  -0.0005937  -0.0058351  -0.0010854
   93  -0.0001007  -0.0004753  -0.0000009  -0.0003237  -0.0013289  -0.0003305
           19          20          21          22          23          24
    1   0.0100755  -0.0013261  -0.0004165  -0.0475906   0.0106083   0.0038825
    2   0.0094562  -0.0049193  -0.0007352  -0.0135646  -0.0082319  -0.0003724
    3   0.0027975  -0.0015344   0.0002235  -0.0017296   0.0012109  -0.0083216
    4  -0.0732340  -0.0509756  -0.0093515  -0.0087557  -0.0664719  -0.0131968
    5  -0.0171658  -0.4045922  -0.0830847  -0.0406280  -0.0527327  -0.0024414
    6  -0.0012117  -0.0769508  -0.0451670  -0.0085521  -0.0034457  -0.0054506
    7  -0.0029369   0.0014307  -0.0001045  -0.3592824   0.0797609   0.0358032
    8   0.0008267   0.0018854   0.0002257   0.1152242  -0.1775385  -0.0317108
    9   0.0001606   0.0003405  -0.0004897   0.0444367  -0.0295668  -0.0627330
   10   0.0014937  -0.0022572  -0.0008138   0.0001884  -0.0017472  -0.0000775
   11  -0.0014757   0.0009866   0.0004605  -0.0022961  -0.0039356  -0.0001361
   12  -0.0002503   0.0002671  -0.0003723  -0.0005856   0.0001134  -0.0030243
   13  -0.0024417   0.0006972   0.0002170   0.0018499   0.0011170   0.0008327
   14  -0.0005429   0.0009104   0.0003262   0.0035708  -0.0048291  -0.0010472
   15  -0.0007664   0.0006701   0.0001929   0.0062764  -0.0065725  -0.0021967
   16  -0.0012895  -0.0002780   0.0020884  -0.0087842   0.0008674   0.0007827
   17  -0.0400115  -0.0044983   0.0048918  -0.0348303  -0.0320422  -0.0081975
   18  -0.0082871  -0.0009428   0.0001041  -0.0098116  -0.0085849  -0.0018110
   19   0.0703797   0.0514336   0.0066287  -0.0030485  -0.0016743   0.0016118
   20   0.0514336   0.4123763   0.0798329  -0.0076265  -0.0034599  -0.0021507
   21   0.0066287   0.0798329   0.0401196   0.0008690  -0.0031783   0.0095820
   22  -0.0030485  -0.0076265   0.0008690   0.5681896  -0.0753593  -0.0503952
   23  -0.0016743  -0.0034599  -0.0031783  -0.0753593   0.2877956   0.0581611
   24   0.0016118  -0.0021507   0.0095820  -0.0503952   0.0581611   0.0580523
   25   0.0003420  -0.0001142  -0.0000930   0.0004803   0.0399764   0.0075877
   26   0.0000989   0.0001945   0.0001007   0.0002716  -0.0060304  -0.0008229
   27  -0.0000226   0.0001179  -0.0002682  -0.0009088  -0.0029222  -0.0036795
   28  -0.0004555   0.0005793  -0.0001224  -0.1577555  -0.0423426  -0.0025793
   29  -0.0017941  -0.0016295  -0.0001635  -0.0685413  -0.1546499  -0.0108350
   30  -0.0003977  -0.0001999  -0.0001690  -0.0077524  -0.0139629  -0.0735655
   31   0.0007956  -0.0000159   0.0000495  -0.0672233   0.0266484   0.0119076
   32  -0.0006223   0.0005639  -0.0001097   0.0439897   0.0412968   0.0040720
   33  -0.0002065   0.0002104  -0.0004019   0.0153066   0.0051336   0.0021592
   34   0.0015790   0.0005932   0.0002915   0.0031427   0.0174069   0.0030396
   35   0.0011388  -0.0016272   0.0000885  -0.0060705   0.0109072   0.0009719
   36   0.0000215  -0.0002673  -0.0003248  -0.0008134  -0.0014108   0.0081947
   37  -0.0001090   0.0065970  -0.0001142   0.0860901   0.0361432   0.0041739
   38  -0.0007420   0.0036834   0.0017146   0.0773716   0.1126529  -0.0003754
   39  -0.0008344   0.0009657  -0.0039702   0.0137971   0.0026663   0.0673717
   40   0.0008977  -0.0000562   0.0002043  -0.0040623   0.0110000   0.0002174
   41  -0.0031942   0.0030873   0.0004577  -0.0065461   0.0101197  -0.0006775
   42  -0.0005377   0.0007164   0.0001332  -0.0024553  -0.0008814   0.0077222
   43  -0.0018866   0.0004896   0.0001537  -0.0004180  -0.0014179  -0.0000301
   44   0.0006041  -0.0002809  -0.0002566   0.0002121  -0.0009782  -0.0001508
   45   0.0001935  -0.0001638   0.0006700  -0.0000324   0.0000023   0.0002453
   46  -0.0009325   0.0002963   0.0001453  -0.0098815   0.0009821   0.0005501
   47   0.0032263  -0.0025437  -0.0006340   0.0105358  -0.0183891  -0.0015971
   48   0.0007922  -0.0008343  -0.0008976  -0.0011887   0.0037495  -0.0085778
   49  -0.0003765   0.0001409   0.0000062  -0.0004107  -0.0010186  -0.0003866
   50   0.0001655   0.0001389   0.0000718  -0.0008344   0.0040242   0.0006644
   51   0.0001455  -0.0001338   0.0000865  -0.0016133   0.0014732   0.0012994
   52  -0.0005948   0.0005036  -0.0001976   0.0106644  -0.0201995  -0.0024759
   53  -0.0000729  -0.0001945   0.0000591   0.0047264  -0.0024532   0.0007777
   54  -0.0002405   0.0002161  -0.0002475   0.0038767  -0.0025142   0.0002763
   55   0.0000055  -0.0001650  -0.0000846  -0.0009257   0.0003521   0.0003461
   56   0.0002669  -0.0005472   0.0000522  -0.0064687   0.0040411   0.0011020
   57   0.0001000  -0.0002071   0.0002965  -0.0010700   0.0006824  -0.0003364
   58   0.0001643  -0.0003262  -0.0000027  -0.0037813   0.0023024   0.0005770
   59   0.0000373   0.0001150  -0.0000394   0.0034620  -0.0018680  -0.0004135
   60   0.0000437  -0.0001082   0.0001193  -0.0019979   0.0017526   0.0001684
   61   0.0008713  -0.0010361  -0.0000840   0.0015963   0.0032429   0.0007359
   62  -0.0000578   0.0001144  -0.0002382  -0.0004474  -0.0005382   0.0000131
   63   0.0000421   0.0001177  -0.0001142   0.0009875  -0.0013191  -0.0012883
   64  -0.0005120  -0.0005461  -0.0000283  -0.0045203   0.0002147   0.0007876
   65  -0.0002987  -0.0005006  -0.0001581   0.0014517   0.0016190  -0.0003768
   66  -0.0000041  -0.0001554   0.0001810   0.0010086  -0.0003189   0.0032428
   67   0.0001285   0.0001182   0.0000311  -0.0014431   0.0045613   0.0018744
   68   0.0000941   0.0001220  -0.0000036   0.0031267  -0.0016034  -0.0026625
   69   0.0000297  -0.0000181   0.0000700   0.0016593  -0.0027101   0.0095944
   70   0.0003168   0.0001725   0.0000736  -0.0000237   0.0004833  -0.0000083
   71  -0.0001270   0.0000455  -0.0001211  -0.0008905  -0.0008154   0.0000700
   72   0.0000177  -0.0001686   0.0006460  -0.0002004  -0.0001622  -0.0005155
   73  -0.0003357  -0.0002124   0.0000576   0.0015240  -0.0292923  -0.0055673
   74  -0.0000304   0.0001957  -0.0000027   0.0001565  -0.0098707  -0.0028275
   75   0.0000699  -0.0000297   0.0003619   0.0004167  -0.0000270   0.0033656
   76  -0.0000122  -0.0000037   0.0000155   0.0002427  -0.0007177  -0.0001705
   77  -0.0000581   0.0001514   0.0000209   0.0002643   0.0002683   0.0000021
   78   0.0000153   0.0000002  -0.0001011  -0.0002538   0.0001644   0.0002034
   79   0.0000481  -0.0001078   0.0000022  -0.0006956   0.0001542   0.0000816
   80  -0.0000465   0.0000589   0.0000043   0.0000616   0.0000714  -0.0000074
   81   0.0000111  -0.0000214   0.0000436  -0.0001290   0.0000475   0.0000277
   82   0.0000816  -0.0000945   0.0000322  -0.0002350  -0.0002141  -0.0000466
   83   0.0000772  -0.0000236   0.0000199  -0.0003401   0.0002453   0.0000669
   84   0.0000218   0.0000369  -0.0001156   0.0004745  -0.0004465   0.0000763
   85  -0.0000828   0.0000218   0.0000008   0.0008263  -0.0012166  -0.0002337
   86   0.0001059  -0.0000460   0.0000544  -0.0005265   0.0003002  -0.0000234
   87  -0.0001304   0.0000408   0.0000752  -0.0001641   0.0002520   0.0000244
   88  -0.0000073   0.0003947   0.0001050   0.0015342   0.0018534   0.0002065
   89   0.0002350  -0.0001404   0.0001999  -0.0004066   0.0015214   0.0000169
   90  -0.0000817   0.0001071   0.0000251   0.0001660   0.0012252  -0.0000165
   91   0.0010722   0.0016648   0.0004413   0.0026160   0.0045602   0.0002794
   92   0.0001485   0.0003642   0.0001425   0.0009310   0.0051864   0.0008417
   93   0.0002698   0.0002453  -0.0002942   0.0001924   0.0012494  -0.0001269
           25          26          27          28          29          30
    1   0.0097277   0.0005093  -0.0009064  -0.0040688   0.0085172   0.0020947
    2  -0.0101489  -0.0043545   0.0000664   0.0059350   0.0050201  -0.0019088
    3  -0.0021479  -0.0005257   0.0004639   0.0031615  -0.0013034   0.0080302
    4  -0.0032839  -0.0015166   0.0003757  -0.0102173  -0.0004217   0.0006466
    5  -0.0000212   0.0023491   0.0003309   0.0034377  -0.0096388  -0.0025253
    6   0.0001545   0.0005543  -0.0009952   0.0015517  -0.0020667  -0.0005882
    7  -0.0774869   0.0211579   0.0080912  -0.0770302   0.0130770   0.0094909
    8  -0.0123345  -0.4117292  -0.0738410   0.0017861   0.0236086   0.0017784
    9   0.0009872  -0.0760469  -0.0462136   0.0066369   0.0012848   0.0112254
   10  -0.0023476  -0.0004773   0.0006101  -0.0007560   0.0007191   0.0003873
   11   0.0000556   0.0007991   0.0001087   0.0008614   0.0007723   0.0000965
   12   0.0002721   0.0003084  -0.0002970   0.0000257  -0.0000907   0.0002496
   13   0.0030807   0.0022892   0.0002893   0.0007632  -0.0018335   0.0002389
   14   0.0022611   0.0006824   0.0003845  -0.0032625  -0.0008601   0.0009741
   15  -0.0005329  -0.0001477  -0.0013614  -0.0031099  -0.0001964  -0.0019607
   16  -0.0026134   0.0074618   0.0018127   0.0751534  -0.0600669  -0.0110077
   17   0.0011787  -0.0037750  -0.0031063  -0.0639285   0.0944409   0.0131908
   18   0.0010938  -0.0037648   0.0104192  -0.0126761   0.0140964   0.0606975
   19   0.0003420   0.0000989  -0.0000226  -0.0004555  -0.0017941  -0.0003977
   20  -0.0001142   0.0001945   0.0001179   0.0005793  -0.0016295  -0.0001999
   21  -0.0000930   0.0001007  -0.0002682  -0.0001224  -0.0001635  -0.0001690
   22   0.0004803   0.0002716  -0.0009088  -0.1577555  -0.0685413  -0.0077524
   23   0.0399764  -0.0060304  -0.0029222  -0.0423426  -0.1546499  -0.0139629
   24   0.0075877  -0.0008229  -0.0036795  -0.0025793  -0.0108350  -0.0735655
   25   0.0707231  -0.0231956  -0.0072140   0.0016308   0.0017014  -0.0002426
   26  -0.0231956   0.4215257   0.0783794  -0.0061986   0.0046432   0.0023135
   27  -0.0072140   0.0783794   0.0435466  -0.0014210   0.0013501  -0.0032283
   28   0.0016308  -0.0061986  -0.0014210   0.5332665  -0.0491858  -0.0498982
   29   0.0017014   0.0046432   0.0013501  -0.0491858   0.6447357   0.1157240
   30  -0.0002426   0.0023135  -0.0032283  -0.0498982   0.1157240   0.1095014
   31   0.0012252  -0.0007904  -0.0003522  -0.3388753   0.1568978   0.0533879
   32  -0.0011949  -0.0016289   0.0000471   0.1072509  -0.2320496  -0.0378381
   33  -0.0003081  -0.0001782  -0.0004048   0.0440541  -0.0426331  -0.0986329
   34   0.0008128   0.0000725  -0.0001468   0.0280482   0.0269388   0.0031395
   35   0.0004199   0.0006410  -0.0000060   0.0467149  -0.0467750  -0.0136178
   36  -0.0000315   0.0002017  -0.0002506   0.0069889  -0.0119813  -0.0025072
   37  -0.0002006  -0.0007302  -0.0000706   0.0340676  -0.0002633   0.0014544
   38   0.0019255  -0.0018204  -0.0002853  -0.0035607   0.0020715  -0.0071757
   39   0.0004013  -0.0001641  -0.0001585   0.0005487  -0.0093835   0.0435737
   40  -0.0007212  -0.0005556  -0.0003275  -0.0150882  -0.0020319   0.0001460
   41  -0.0026189  -0.0026740  -0.0000807  -0.0104140   0.0041763   0.0008237
   42  -0.0006501  -0.0006968  -0.0001404  -0.0009651   0.0005231   0.0013009
   43  -0.0003440  -0.0001056   0.0000469  -0.0003507   0.0001105   0.0000825
   44   0.0003767   0.0001224   0.0000103  -0.0004048  -0.0003963  -0.0000006
   45   0.0000793   0.0000265  -0.0000441  -0.0000746  -0.0000465  -0.0003933
   46   0.0000049  -0.0003930  -0.0002667   0.0119093   0.0054803  -0.0014749
   47   0.0021809   0.0017934   0.0002534   0.0061068  -0.0050398  -0.0005856
   48   0.0007126   0.0005986   0.0003734   0.0014210  -0.0000610  -0.0010390
   49  -0.0015306   0.0003039   0.0000160  -0.0003258   0.0004228   0.0001309
   50  -0.0003463  -0.0003539  -0.0003986  -0.0007452   0.0004724  -0.0000205
   51  -0.0000736   0.0001801   0.0011516   0.0010238   0.0000418   0.0005487
   52   0.0005507   0.0009793  -0.0000478   0.0105743  -0.0044722   0.0000329
   53  -0.0002840   0.0001512  -0.0000033   0.0041928  -0.0022030  -0.0000202
   54  -0.0001689  -0.0000444   0.0002537  -0.0004091  -0.0003202  -0.0020782
   55   0.0001722   0.0001674   0.0000917   0.0006084   0.0001128  -0.0000669
   56   0.0000322   0.0002908  -0.0000997   0.0036078   0.0006125  -0.0003145
   57   0.0000924   0.0001560  -0.0002572   0.0005849   0.0001460  -0.0000930
   58   0.0001523   0.0002653  -0.0000169   0.0020140   0.0003424  -0.0001073
   59   0.0001161  -0.0001040   0.0001622  -0.0017415  -0.0003119   0.0002501
   60  -0.0000494   0.0001226  -0.0001388   0.0011798   0.0002506  -0.0001526
   61   0.0000423   0.0001356   0.0002899  -0.0006018  -0.0001523   0.0001351
   62   0.0001565  -0.0002636   0.0000743  -0.0015713  -0.0001533   0.0000571
   63   0.0001533  -0.0000120  -0.0000834  -0.0010625  -0.0003629   0.0004513
   64  -0.0003225   0.0002292   0.0000751  -0.0000811   0.0002914   0.0000035
   65   0.0000608   0.0001826  -0.0000149  -0.0000735  -0.0010364  -0.0001246
   66   0.0000644  -0.0000562   0.0003540  -0.0000083  -0.0002051  -0.0003752
   67   0.0003003  -0.0002117  -0.0000115  -0.0186225  -0.0122332  -0.0000950
   68   0.0000997   0.0000387  -0.0001381   0.0178697   0.0120995  -0.0005777
   69   0.0000370  -0.0001063   0.0006495   0.0057582   0.0022202   0.0067621
   70   0.0001011  -0.0001222  -0.0000345   0.0011260  -0.0010634  -0.0000386
   71  -0.0000899   0.0001338   0.0000208  -0.0024235  -0.0046512  -0.0013558
   72  -0.0000348   0.0000174   0.0000709  -0.0003653  -0.0014076   0.0026832
   73  -0.0002754   0.0004147   0.0001104  -0.0748790  -0.0135702  -0.0004921
   74   0.0002108  -0.0005897  -0.0001637  -0.0128072  -0.3344577  -0.0549789
   75   0.0000480  -0.0002143   0.0001026  -0.0004690  -0.0549922  -0.0604316
   76  -0.0001173   0.0001043  -0.0000090  -0.0000177  -0.0000617  -0.0000299
   77  -0.0002835  -0.0000231  -0.0000549  -0.0002018   0.0000053   0.0000088
   78  -0.0000024   0.0000031   0.0001421   0.0001618   0.0000071   0.0000838
   79   0.0000967   0.0001075   0.0000245   0.0004159   0.0000472  -0.0000349
   80  -0.0000738   0.0000002  -0.0000124  -0.0000095   0.0000023   0.0000045
   81   0.0000142   0.0000245  -0.0000034   0.0000754   0.0000220  -0.0000242
   82   0.0000172   0.0000782  -0.0000227   0.0001029   0.0000172  -0.0000589
   83   0.0000667   0.0000706  -0.0000032   0.0002252   0.0000338  -0.0000350
   84   0.0000093  -0.0000462   0.0001713  -0.0002664  -0.0000715   0.0001583
   85  -0.0000813  -0.0000309  -0.0000219  -0.0005450  -0.0001138  -0.0000230
   86  -0.0000268   0.0000881  -0.0000581   0.0003055   0.0000941  -0.0001083
   87  -0.0000848  -0.0000751   0.0000004   0.0000576   0.0000467   0.0000006
   88  -0.0000795  -0.0001807  -0.0000032  -0.0002620   0.0002572   0.0001594
   89   0.0001106   0.0000036  -0.0001230   0.0001653   0.0001489  -0.0001868
   90  -0.0000725  -0.0000732  -0.0001080   0.0000504   0.0001971  -0.0000267
   91  -0.0000574  -0.0001352  -0.0000295   0.0001337   0.0009383   0.0001803
   92  -0.0002007  -0.0003669   0.0000074   0.0001183   0.0008324   0.0002471
   93   0.0000007  -0.0000090  -0.0000702   0.0000891   0.0002229   0.0000464
           31          32          33          34          35          36
    1  -0.0048251   0.0037734   0.0015656  -0.0027519  -0.0013765   0.0004789
    2  -0.0014682   0.0033085   0.0005558   0.0021139  -0.0010970  -0.0005834
    3   0.0000406   0.0010184   0.0019126   0.0002056  -0.0010649  -0.0000652
    4   0.0061325  -0.0160745  -0.0036243   0.0201260   0.0289991   0.0039952
    5   0.0032614  -0.0033417  -0.0005437   0.0089648   0.0015748  -0.0016187
    6  -0.0000953   0.0014897  -0.0011361  -0.0001602  -0.0040717   0.0035883
    7   0.0161475  -0.0299036  -0.0070142   0.0061980   0.0143603   0.0022763
    8  -0.0110599   0.0046122   0.0010608  -0.0039990  -0.0051968  -0.0003488
    9  -0.0029265   0.0018869   0.0049897  -0.0011375  -0.0014099  -0.0017992
   10   0.0003214  -0.0012043  -0.0003193   0.0008851   0.0007199   0.0000983
   11  -0.0008621   0.0003837   0.0002545  -0.0004308  -0.0007798  -0.0001904
   12  -0.0001408   0.0001892  -0.0005439  -0.0000663  -0.0002466   0.0004471
   13   0.0010858  -0.0001089  -0.0000773   0.0003833   0.0008726   0.0001645
   14   0.0016753  -0.0033950  -0.0010497   0.0027692   0.0025400   0.0004185
   15   0.0021684  -0.0036840  -0.0003931   0.0027112   0.0033746  -0.0002357
   16   0.0070578   0.0039298   0.0011144  -0.0745666  -0.0320303   0.0022746
   17  -0.0239894   0.0203802   0.0041933  -0.0143845   0.0431672   0.0101024
   18  -0.0047558   0.0002178   0.0142812   0.0063498   0.0120598   0.0048583
   19   0.0007956  -0.0006223  -0.0002065   0.0015790   0.0011388   0.0000215
   20  -0.0000159   0.0005639   0.0002104   0.0005932  -0.0016272  -0.0002673
   21   0.0000495  -0.0001097  -0.0004019   0.0002915   0.0000885  -0.0003248
   22  -0.0672233   0.0439897   0.0153066   0.0031427  -0.0060705  -0.0008134
   23   0.0266484   0.0412968   0.0051336   0.0174069   0.0109072  -0.0014108
   24   0.0119076   0.0040720   0.0021592   0.0030396   0.0009719   0.0081947
   25   0.0012252  -0.0011949  -0.0003081   0.0008128   0.0004199  -0.0000315
   26  -0.0007904  -0.0016289  -0.0001782   0.0000725   0.0006410   0.0002017
   27  -0.0003522   0.0000471  -0.0004048  -0.0001468  -0.0000060  -0.0002506
   28  -0.3388753   0.1072509   0.0440541   0.0280482   0.0467149   0.0069889
   29   0.1568978  -0.2320496  -0.0426331   0.0269388  -0.0467750  -0.0119813
   30   0.0533879  -0.0378381  -0.0986329   0.0031395  -0.0136178  -0.0025072
   31   0.7869693   0.0006317  -0.0537701  -0.1375321  -0.0337230  -0.0014764
   32   0.0006317   0.6202206   0.0865263   0.0214012  -0.2529290  -0.0360720
   33  -0.0537701   0.0865263   0.2066506   0.0094637  -0.0313435  -0.0881070
   34  -0.1375321   0.0214012   0.0094637   0.7900541   0.0074436  -0.0534291
   35  -0.0337230  -0.2529290  -0.0313435   0.0074436   0.6181054   0.0862910
   36  -0.0014764  -0.0360720  -0.0881070  -0.0534291   0.0862910   0.2015367
   37   0.0184425  -0.0513681  -0.0129878  -0.3620509  -0.1114843   0.0010622
   38  -0.0303253  -0.0499275  -0.0074444  -0.1581565  -0.2139416  -0.0123975
   39  -0.0080423  -0.0049143  -0.0033818  -0.0072494  -0.0166077  -0.0835091
   40  -0.0007292   0.0006235   0.0001081  -0.0012594  -0.0012564  -0.0000873
   41  -0.0002558  -0.0008023  -0.0002960   0.0001031   0.0006492   0.0002451
   42  -0.0002267  -0.0000256   0.0008622  -0.0001888   0.0000134  -0.0008326
   43  -0.0000239  -0.0000616  -0.0000068   0.0001001  -0.0000836  -0.0000234
   44   0.0005267  -0.0005975  -0.0001870   0.0006357   0.0005319   0.0000615
   45   0.0001047  -0.0000903   0.0001044   0.0000644   0.0000972  -0.0001191
   46  -0.0035846   0.0044305   0.0013608  -0.0026376  -0.0034979  -0.0006063
   47   0.0028771  -0.0030701  -0.0007155   0.0028381   0.0027599   0.0001770
   48  -0.0006939   0.0012703  -0.0008114  -0.0007280  -0.0014399   0.0009449
   49   0.0002841   0.0001517  -0.0000441  -0.0000668  -0.0000503   0.0000402
   50  -0.0008069   0.0006656   0.0002246  -0.0006775  -0.0007600  -0.0001139
   51  -0.0006208   0.0010061   0.0000032  -0.0007190  -0.0009673   0.0001017
   52   0.0029309  -0.0029919  -0.0008540   0.0028893   0.0031792   0.0004675
   53  -0.0003894   0.0005612   0.0001437  -0.0005208  -0.0006117  -0.0000418
   54   0.0009229  -0.0012293  -0.0000385   0.0008654   0.0012572  -0.0001559
   55  -0.0005004   0.0004775   0.0001309  -0.0004554  -0.0004971  -0.0000469
   56  -0.0025065   0.0034805   0.0009361  -0.0026632  -0.0034839  -0.0004805
   57  -0.0004302   0.0005300   0.0001591  -0.0004273  -0.0005345  -0.0000981
   58  -0.0013017   0.0019666   0.0005080  -0.0014749  -0.0019066  -0.0002552
   59   0.0012513  -0.0016448  -0.0004588   0.0012520   0.0016690   0.0002362
   60  -0.0007954   0.0012338   0.0003310  -0.0009162  -0.0012145  -0.0001707
   61  -0.0004055   0.0006111   0.0001265  -0.0004104  -0.0006835  -0.0000641
   62   0.0005156  -0.0008189  -0.0002252   0.0007264   0.0007388   0.0001148
   63   0.0006692  -0.0009586  -0.0003532   0.0007488   0.0010436   0.0002928
   64  -0.0047218  -0.0010795   0.0010176   0.0035098  -0.0294093  -0.0056262
   65  -0.0018816   0.0019844  -0.0011350   0.0009869  -0.0091053  -0.0029641
   66   0.0008221  -0.0012442   0.0084872   0.0003251  -0.0003006   0.0054476
   67  -0.2930552  -0.1088671  -0.0001422   0.0032304   0.0018223   0.0004824
   68  -0.1100207  -0.1259524  -0.0048269  -0.0289442  -0.0107630  -0.0003711
   69  -0.0002510  -0.0049334  -0.0533040  -0.0057067  -0.0031981   0.0042015
   70   0.0056085  -0.0033408  -0.0008393  -0.2726418   0.1148575   0.0426142
   71   0.0275818  -0.0120928  -0.0056220   0.1153933  -0.1367810  -0.0273666
   72   0.0053878  -0.0030237   0.0030262   0.0426551  -0.0272886  -0.0598080
   73   0.0059000   0.0282359   0.0055332  -0.0043982   0.0012011   0.0014004
   74  -0.0021977  -0.0106677  -0.0030375   0.0019594   0.0018873  -0.0014969
   75  -0.0004374  -0.0057659   0.0044075   0.0015982  -0.0014759   0.0083095
   76   0.0001502  -0.0001414  -0.0000278   0.0001372   0.0001134   0.0000066
   77   0.0000531  -0.0001278  -0.0000320   0.0000552   0.0001162   0.0000169
   78  -0.0000971   0.0001479   0.0000184  -0.0001111  -0.0001491   0.0000161
   79  -0.0002186   0.0003985   0.0001030  -0.0002620  -0.0003847  -0.0000544
   80   0.0000037  -0.0000200  -0.0000034  -0.0000015   0.0000157   0.0000053
   81  -0.0000470   0.0000729   0.0000366  -0.0000586  -0.0000727  -0.0000150
   82  -0.0000534   0.0001119   0.0000420  -0.0000594  -0.0001120  -0.0000271
   83  -0.0001258   0.0002046   0.0000615  -0.0001503  -0.0002008  -0.0000314
   84   0.0001864  -0.0002839  -0.0001022   0.0002173   0.0002704   0.0000626
   85   0.0003847  -0.0005411  -0.0001367   0.0004302   0.0005266   0.0000558
   86  -0.0002123   0.0003195   0.0000971  -0.0002401  -0.0003470  -0.0000635
   87  -0.0000714   0.0000905   0.0000257  -0.0000823  -0.0001085  -0.0000143
   88  -0.0000818  -0.0003102  -0.0000401  -0.0001718   0.0002508   0.0000437
   89  -0.0003456   0.0004086   0.0001703  -0.0003897  -0.0003202  -0.0000913
   90  -0.0002137   0.0001810   0.0000716  -0.0002706  -0.0001874  -0.0000168
   91  -0.0004687  -0.0002680  -0.0000597  -0.0008352   0.0000380   0.0001273
   92  -0.0009586   0.0006675   0.0001822  -0.0011051  -0.0006011   0.0000074
   93  -0.0002158   0.0002023   0.0000731  -0.0002582  -0.0001664   0.0000174
           37          38          39          40          41          42
    1   0.0145830  -0.0036991   0.0011268  -0.0348668  -0.0037182  -0.0020123
    2  -0.0027819   0.0292119  -0.0000505  -0.0073787   0.0199731   0.0038370
    3   0.0026898  -0.0011287   0.0285169  -0.0051590   0.0027114   0.0060648
    4  -0.0745799  -0.0035229   0.0113361   0.0010545  -0.0003630   0.0003105
    5   0.0067453   0.0229669   0.0017590  -0.0003813  -0.0005614   0.0002214
    6   0.0133771   0.0027037   0.0102363  -0.0015874   0.0003481   0.0012546
    7  -0.0074029  -0.0044328   0.0003128   0.0003555   0.0002533   0.0004810
    8  -0.0025744  -0.0090070  -0.0016278  -0.0035278  -0.0010405   0.0000826
    9   0.0007897  -0.0022758  -0.0011189   0.0010114  -0.0007814  -0.0003127
   10  -0.0016676   0.0008810   0.0004600  -0.4292173   0.1501629  -0.0122985
   11   0.0009174   0.0001843   0.0002039   0.1721709  -0.1933436  -0.0131757
   12   0.0001282   0.0003846  -0.0014794  -0.0107688  -0.0145098  -0.0333085
   13  -0.0023178   0.0012381   0.0002623  -0.0146668  -0.0238141  -0.0023694
   14  -0.0017733   0.0007868   0.0000684  -0.0378945  -0.0319340  -0.0107095
   15  -0.0036804   0.0009203   0.0016520  -0.0021289  -0.0057974   0.0043265
   16  -0.0819433   0.0266557   0.0038903   0.0024223   0.0197084   0.0038081
   17   0.0615113  -0.1089952  -0.0161973  -0.0043161  -0.0097239   0.0009421
   18   0.0142765  -0.0151437  -0.0439684   0.0021204  -0.0001455  -0.0079348
   19  -0.0001090  -0.0007420  -0.0008344   0.0008977  -0.0031942  -0.0005377
   20   0.0065970   0.0036834   0.0009657  -0.0000562   0.0030873   0.0007164
   21  -0.0001142   0.0017146  -0.0039702   0.0002043   0.0004577   0.0001332
   22   0.0860901   0.0773716   0.0137971  -0.0040623  -0.0065461  -0.0024553
   23   0.0361432   0.1126529   0.0026663   0.0110000   0.0101197  -0.0008814
   24   0.0041739  -0.0003754   0.0673717   0.0002174  -0.0006775   0.0077222
   25  -0.0002006   0.0019255   0.0004013  -0.0007212  -0.0026189  -0.0006501
   26  -0.0007302  -0.0018204  -0.0001641  -0.0005556  -0.0026740  -0.0006968
   27  -0.0000706  -0.0002853  -0.0001585  -0.0003275  -0.0000807  -0.0001404
   28   0.0340676  -0.0035607   0.0005487  -0.0150882  -0.0104140  -0.0009651
   29  -0.0002633   0.0020715  -0.0093835  -0.0020319   0.0041763   0.0005231
   30   0.0014544  -0.0071757   0.0435737   0.0001460   0.0008237   0.0013009
   31   0.0184425  -0.0303253  -0.0080423  -0.0007292  -0.0002558  -0.0002267
   32  -0.0513681  -0.0499275  -0.0049143   0.0006235  -0.0008023  -0.0000256
   33  -0.0129878  -0.0074444  -0.0033818   0.0001081  -0.0002960   0.0008622
   34  -0.3620509  -0.1581565  -0.0072494  -0.0012594   0.0001031  -0.0001888
   35  -0.1114843  -0.2139416  -0.0166077  -0.0012564   0.0006492   0.0000134
   36   0.0010622  -0.0123975  -0.0835091  -0.0000873   0.0002451  -0.0008326
   37   0.4708751   0.0854480  -0.0231021   0.0160082   0.0016396   0.0010517
   38   0.0854480   0.5374914   0.0987534  -0.0068113  -0.0040170  -0.0002950
   39  -0.0231021   0.0987534   0.0345494  -0.0029587  -0.0001882  -0.0000800
   40   0.0160082  -0.0068113  -0.0029587   0.8228304  -0.0446456   0.0659421
   41   0.0016396  -0.0040170  -0.0001882  -0.0446456   0.7016450   0.0841375
   42   0.0010517  -0.0002950  -0.0000800   0.0659421   0.0841375   0.2268397
   43   0.0003628  -0.0000045  -0.0000673   0.0039865   0.0398047   0.0060489
   44  -0.0000317   0.0002439   0.0000555   0.0073722  -0.0160864  -0.0029384
   45  -0.0000488  -0.0000301   0.0002126   0.0017332   0.0005876   0.0021322
   46  -0.0125343   0.0087688   0.0032744  -0.0961397  -0.0818013  -0.0256335
   47  -0.0035582   0.0065088   0.0006278  -0.0060606  -0.2573243  -0.0197461
   48   0.0010374  -0.0001114  -0.0004299  -0.0195199  -0.0516173  -0.0939156
   49  -0.0000439  -0.0003140  -0.0001578  -0.0058698  -0.0020845  -0.0019378
   50   0.0007406  -0.0003380   0.0000011  -0.0055472  -0.0028384  -0.0008842
   51   0.0008542   0.0000367  -0.0011301  -0.0030552   0.0004680   0.0048331
   52  -0.0099178   0.0069145   0.0016538   0.0163587   0.0552944   0.0078010
   53  -0.0006891   0.0001603  -0.0005415  -0.0114278  -0.0148005  -0.0141968
   54  -0.0018428   0.0000884   0.0014233  -0.0066388   0.0001490  -0.0091640
   55   0.0007303  -0.0001491  -0.0001710  -0.0043069   0.0064218   0.0005132
   56   0.0037200  -0.0007354  -0.0004856  -0.0095057  -0.0149912  -0.0096909
   57   0.0006054  -0.0001607   0.0000834  -0.0010675   0.0006941  -0.0115632
   58   0.0022164  -0.0003654  -0.0001765  -0.0235933   0.0139912  -0.0109084
   59  -0.0020168   0.0002591   0.0002275  -0.0120623   0.0190913   0.0018114
   60   0.0010627  -0.0002759  -0.0002235   0.0001245   0.0029358   0.0046047
   61  -0.0002161  -0.0005140  -0.0003621  -0.2168374  -0.0722955  -0.0219103
   62  -0.0000855   0.0003129   0.0002324  -0.0343174  -0.1818809  -0.0122553
   63  -0.0006526   0.0002483   0.0000861  -0.0161418  -0.0049295  -0.0992356
   64  -0.0708078  -0.0104710   0.0004456   0.0000347  -0.0005341  -0.0001557
   65  -0.0120195  -0.3333237  -0.0561307   0.0000549   0.0003655   0.0000963
   66   0.0002361  -0.0558726  -0.0571882   0.0000598   0.0000880   0.0000672
   67   0.0014233   0.0004362   0.0002114  -0.0000505  -0.0003154  -0.0000858
   68   0.0017779  -0.0048707  -0.0017631   0.0000197  -0.0000332  -0.0000191
   69   0.0005787  -0.0015974   0.0026120   0.0000689  -0.0000143   0.0000502
   70  -0.0189419   0.0141125   0.0050876   0.0000035  -0.0003062  -0.0000981
   71  -0.0160474   0.0123250   0.0026395   0.0000199   0.0000658   0.0000208
   72  -0.0006152   0.0000228   0.0066595   0.0000129   0.0000494  -0.0000001
   73  -0.0001080  -0.0004291  -0.0000669  -0.0001250  -0.0003820  -0.0001467
   74  -0.0000335  -0.0011017  -0.0000985  -0.0000119  -0.0002442  -0.0001089
   75  -0.0000450  -0.0000853  -0.0003117  -0.0000154  -0.0000425  -0.0000343
   76  -0.0001298   0.0001006   0.0000127  -0.0040363   0.0011895  -0.0028738
   77  -0.0001739   0.0000044   0.0000387   0.0021231   0.0006206  -0.0000789
   78   0.0001497  -0.0000013  -0.0001199  -0.0024550  -0.0009494   0.0090516
   79   0.0003990  -0.0000649  -0.0000631   0.0006569  -0.0007294   0.0002178
   80  -0.0000426  -0.0000037   0.0000042  -0.0006785  -0.0006118  -0.0003300
   81   0.0000781  -0.0000233   0.0000021  -0.0005370   0.0000160  -0.0004012
   82   0.0001595  -0.0000044  -0.0000130  -0.0011634   0.0049167  -0.0008166
   83   0.0002060  -0.0000370  -0.0000155   0.0024213  -0.0037733   0.0005460
   84  -0.0002734   0.0000878  -0.0000276   0.0009564   0.0022812   0.0000776
   85  -0.0004647   0.0001430   0.0000504  -0.0117782  -0.0135054   0.0247188
   86   0.0003221  -0.0000853  -0.0000371  -0.0052615  -0.0053585   0.0138891
   87   0.0000333  -0.0000159  -0.0000142   0.0033626   0.0037050   0.0018041
   88  -0.0008242  -0.0001809   0.0001067   0.0098728  -0.0195667  -0.0247014
   89   0.0003377  -0.0001840   0.0000662  -0.0072514  -0.0276199  -0.0259184
   90  -0.0000733  -0.0001252   0.0000406  -0.0005336  -0.0208295  -0.0102759
   91  -0.0011260  -0.0004187   0.0001985  -0.0101064  -0.0062720   0.0001899
   92  -0.0005784  -0.0004760  -0.0000610   0.0052769   0.0099060   0.0052219
   93  -0.0000565  -0.0001334   0.0001018  -0.0029166   0.0011777  -0.0038448
           43          44          45          46          47          48
    1   0.0063661  -0.0052660  -0.0015767  -0.0307179   0.0246657   0.0001611
    2  -0.0056912   0.0003798   0.0004086  -0.0072752   0.0021707  -0.0001811
    3  -0.0012078   0.0000594  -0.0021044  -0.0045931   0.0056996  -0.0046494
    4   0.0016546  -0.0003961  -0.0001064   0.0046007  -0.0056469   0.0029141
    5   0.0008348  -0.0001451   0.0000401   0.0058194  -0.0042401  -0.0014976
    6   0.0003227   0.0000837  -0.0004677   0.0019286  -0.0002730   0.0002655
    7  -0.0018435   0.0009434   0.0003704   0.0078841  -0.0087296   0.0016858
    8   0.0001714   0.0010327   0.0002378  -0.0024466   0.0019862  -0.0007418
    9  -0.0001498   0.0001659   0.0006232  -0.0003824   0.0009086   0.0012341
   10  -0.0499079  -0.0025105  -0.0004659  -0.0261956   0.0330246  -0.0000898
   11  -0.0309392  -0.3366856  -0.0565947   0.0504815  -0.0472726   0.0031383
   12  -0.0050798  -0.0537683  -0.0289162   0.0081971  -0.0036004  -0.0043404
   13  -0.0015366  -0.0004241   0.0002847  -0.2751675  -0.0600514  -0.0474546
   14  -0.0004768  -0.0004149   0.0002940  -0.0711808  -0.1486316  -0.0190394
   15  -0.0002772   0.0001175  -0.0006746  -0.0363403  -0.0172831  -0.0481162
   16   0.0000050   0.0010267   0.0002037   0.0045723  -0.0116420  -0.0046883
   17   0.0008813   0.0012973   0.0000429  -0.0142475   0.0197458  -0.0035363
   18   0.0000606   0.0001824  -0.0003475  -0.0023420   0.0013393   0.0114408
   19  -0.0018866   0.0006041   0.0001935  -0.0009325   0.0032263   0.0007922
   20   0.0004896  -0.0002809  -0.0001638   0.0002963  -0.0025437  -0.0008343
   21   0.0001537  -0.0002566   0.0006700   0.0001453  -0.0006340  -0.0008976
   22  -0.0004180   0.0002121  -0.0000324  -0.0098815   0.0105358  -0.0011887
   23  -0.0014179  -0.0009782   0.0000023   0.0009821  -0.0183891   0.0037495
   24  -0.0000301  -0.0001508   0.0002453   0.0005501  -0.0015971  -0.0085778
   25  -0.0003440   0.0003767   0.0000793   0.0000049   0.0021809   0.0007126
   26  -0.0001056   0.0001224   0.0000265  -0.0003930   0.0017934   0.0005986
   27   0.0000469   0.0000103  -0.0000441  -0.0002667   0.0002534   0.0003734
   28  -0.0003507  -0.0004048  -0.0000746   0.0119093   0.0061068   0.0014210
[...]
 H          0.363  0.071  0.089    0.029  0.001  0.007   -0.024 -0.009 -0.006
 H         -0.113 -0.051 -0.043    0.002  0.002  0.000    0.013  0.001  0.005
 H         -0.216  0.143 -0.069   -0.004  0.004 -0.002    0.027 -0.020  0.008
 H         -0.136 -0.064 -0.057   -0.004 -0.002 -0.003    0.014  0.005  0.007
 O         -0.007  0.003 -0.003   -0.000  0.000  0.000   -0.000 -0.000 -0.000
 O         -0.000 -0.000  0.000   -0.000 -0.000 -0.000    0.000  0.000  0.000
 TransDip   0.059  0.101  0.078    0.527 -0.013 -0.036   -0.029 -0.190 -0.048

 Mode:                73                     74                     75
 Frequency:      1623.04                1653.24                1662.63
 Force Cnst:     14.8387                 8.6637                 9.3964
 Red. Mass:       9.5607                 5.3800                 5.7692
 IR Active:          YES                    YES                    YES
 IR Intens:      314.752                 27.316                 29.803
 Raman Active:       YES                    YES                    YES
               X      Y      Z        X      Y      Z        X      Y      Z
 Ni         0.003 -0.002 -0.001   -0.000 -0.002 -0.000    0.000 -0.001  0.000
 N          0.027  0.006 -0.002    0.060  0.018 -0.002    0.013  0.003 -0.001
 N         -0.018  0.001  0.003   -0.061  0.022  0.009   -0.017  0.003  0.003
 N         -0.445  0.170 -0.007   -0.005  0.001  0.000   -0.088  0.039 -0.001
 N         -0.026 -0.011 -0.002   -0.004  0.002 -0.001    0.066 -0.014  0.008
 C         -0.030 -0.003  0.003   -0.190 -0.013  0.016   -0.029 -0.004  0.002
 H         -0.052  0.017  0.009   -0.048  0.037  0.006   -0.014  0.006  0.003
 C          0.014 -0.000 -0.001    0.191 -0.026 -0.021    0.032 -0.001 -0.003
 H          0.051  0.008 -0.008    0.048  0.035  0.004    0.046  0.009 -0.003
 C          0.030 -0.015 -0.006   -0.276  0.089  0.042   -0.030  0.007  0.004
 C         -0.032  0.022  0.007    0.221 -0.132 -0.046    0.021 -0.011 -0.004
 C          0.025  0.012  0.000   -0.232 -0.118 -0.003   -0.022 -0.012 -0.000
 C         -0.014 -0.010 -0.001    0.285  0.072 -0.012    0.030  0.007 -0.001
 C          0.620 -0.199  0.024    0.003  0.007  0.001    0.157 -0.108 -0.000
 H          0.287  0.208  0.029    0.018  0.004  0.000    0.036  0.036  0.003
 C          0.060 -0.052  0.009    0.020 -0.016  0.003   -0.231  0.151 -0.031
 H          0.014 -0.014 -0.026    0.002 -0.000  0.002   -0.209  0.038 -0.019
 C         -0.098  0.080 -0.014   -0.019  0.016 -0.003    0.183 -0.131  0.029
 C         -0.013 -0.156 -0.016   -0.005 -0.045 -0.005    0.033  0.346  0.038
 C         -0.012  0.135  0.015   -0.004  0.044  0.002    0.028 -0.342 -0.017
 C         -0.106 -0.019 -0.022    0.000 -0.009 -0.001   -0.036  0.065 -0.000
 H          0.009 -0.015 -0.003   -0.358  0.110  0.054   -0.040  0.011  0.006
 H          0.004 -0.060 -0.012   -0.009  0.388  0.079    0.002  0.033  0.007
 H         -0.014 -0.058 -0.010    0.040  0.383  0.073    0.003  0.035  0.007
 H         -0.033 -0.017 -0.001    0.356  0.091 -0.011    0.038  0.006 -0.002
 H          0.148  0.090  0.035    0.045  0.017  0.011   -0.387 -0.146 -0.097
 H          0.199  0.149  0.057    0.048  0.029  0.015   -0.376 -0.226 -0.121
 H          0.113 -0.097  0.036    0.036 -0.026  0.009   -0.277  0.192 -0.066
 H          0.036  0.018  0.005    0.011  0.003  0.005   -0.075 -0.014 -0.035
 O          0.013 -0.004  0.007    0.001 -0.001  0.000   -0.002  0.005 -0.000
 O         -0.001  0.004 -0.003    0.000  0.000 -0.000    0.000 -0.002 -0.000
 TransDip   0.558 -0.096  0.048    0.068 -0.150 -0.028    0.052 -0.167 -0.007

 Mode:                76                     77                     78
 Frequency:      2887.34                3184.19                3195.53
 Force Cnst:      5.2837                 6.4444                 6.5405
 Red. Mass:       1.0757                 1.0788                 1.0871
 IR Active:          YES                    YES                    YES
 IR Intens:       42.311                841.493                 50.276
 Raman Active:       YES                    YES                    YES
               X      Y      Z        X      Y      Z        X      Y      Z
 Ni         0.000  0.000 -0.000   -0.000  0.000  0.000    0.000  0.000 -0.000
 N          0.000 -0.000  0.000   -0.000 -0.000 -0.000    0.000 -0.000 -0.000
 N          0.000  0.000 -0.000    0.000  0.000  0.000    0.000 -0.000  0.000
 N         -0.001 -0.001  0.000    0.003 -0.073 -0.012   -0.000 -0.000 -0.000
 N          0.000  0.000  0.000   -0.000  0.000  0.000   -0.000 -0.000 -0.000
 C         -0.000 -0.000 -0.000    0.000  0.000 -0.000   -0.000 -0.000 -0.000
 H          0.000  0.000 -0.000   -0.000  0.002  0.000    0.000  0.000  0.000
 C         -0.000  0.000  0.000    0.000  0.000  0.000   -0.000  0.000  0.000
 H          0.000 -0.000  0.000    0.001  0.001  0.000   -0.000 -0.000 -0.000
 C          0.000 -0.000  0.000   -0.000  0.001  0.000    0.000 -0.000 -0.000
 C         -0.000  0.000  0.000    0.000 -0.000 -0.000   -0.000  0.000  0.000
 C         -0.000 -0.000 -0.000    0.000  0.000 -0.000   -0.000 -0.000 -0.000
 C          0.000  0.000 -0.000   -0.000 -0.001 -0.000    0.000  0.000  0.000
 C          0.002  0.001 -0.002   -0.001 -0.002 -0.001   -0.000  0.000  0.000
 H         -0.002  0.017  0.001   -0.045  0.984  0.156   -0.000  0.002  0.000
 C          0.000  0.000 -0.000   -0.001  0.002 -0.000   -0.001  0.001 -0.000
 H          0.000 -0.000 -0.000   -0.001 -0.001 -0.000    0.002 -0.000  0.000
 C          0.001  0.000  0.000    0.001  0.001  0.000    0.002 -0.054 -0.003
 C         -0.001 -0.002 -0.001   -0.001  0.000 -0.000   -0.050  0.037 -0.009
 C         -0.001  0.002 -0.001   -0.001 -0.000 -0.000    0.017  0.007  0.005
 C          0.017  0.037 -0.067   -0.000 -0.000  0.002    0.000 -0.000  0.000
 H          0.000  0.000 -0.000    0.001  0.010  0.002   -0.000 -0.003 -0.001
 H         -0.000 -0.000 -0.000   -0.002 -0.001 -0.000    0.000  0.000  0.000
 H          0.000  0.000  0.000   -0.001  0.001  0.000   -0.000  0.000  0.000
 H          0.000  0.000  0.000   -0.000 -0.009 -0.002    0.000  0.003  0.001
 H          0.000  0.000 -0.000   -0.000 -0.013 -0.000   -0.003  0.628  0.040
 H          0.004 -0.001 -0.001    0.008 -0.006  0.002    0.594 -0.417  0.112
 H          0.005  0.005  0.004    0.005  0.003  0.002   -0.207 -0.106 -0.060
 H         -0.211 -0.442  0.868    0.002  0.005 -0.015    0.001 -0.000 -0.001
 O          0.000 -0.002 -0.003    0.001 -0.000 -0.000   -0.000  0.000 -0.000
 O          0.000 -0.001  0.001    0.002  0.001  0.000    0.000 -0.000 -0.000
 TransDip   0.010 -0.091 -0.187    0.422  0.813  0.155   -0.225 -0.007 -0.031

 Mode:                79                     80                     81
 Frequency:      3206.35                3206.79                3210.11
 Force Cnst:      6.6019                 6.5875                 6.6115
 Red. Mass:       1.0899                 1.0873                 1.0889
 IR Active:          YES                    YES                    YES
 IR Intens:       36.678                  0.026                  8.858
 Raman Active:       YES                    YES                    YES
               X      Y      Z        X      Y      Z        X      Y      Z
 Ni         0.000  0.000  0.000    0.000  0.000  0.000    0.000  0.000  0.000
 N         -0.000 -0.000  0.000   -0.000 -0.000 -0.000    0.000 -0.000 -0.000
 N         -0.000 -0.000  0.000    0.000 -0.000 -0.000    0.000  0.000  0.000
 N          0.000 -0.001 -0.000   -0.000  0.000  0.000   -0.000  0.001  0.000
 N          0.000 -0.000 -0.000    0.000 -0.000 -0.000    0.000 -0.000 -0.000
 C          0.000  0.000  0.000   -0.001  0.001  0.000   -0.001  0.000  0.000
 H          0.000 -0.000 -0.000    0.002  0.001  0.000    0.002  0.002  0.000
 C          0.000 -0.000 -0.000    0.001  0.001  0.000   -0.001 -0.000  0.000
 H         -0.000  0.001  0.000   -0.002  0.001  0.000    0.002 -0.002 -0.000
 C         -0.000  0.001  0.000   -0.002 -0.044 -0.009    0.003  0.052  0.010
 C          0.001  0.000 -0.000    0.036  0.019  0.000   -0.022 -0.013 -0.001
 C         -0.001  0.001  0.000   -0.032  0.019  0.007   -0.018  0.013  0.004
 C         -0.000 -0.003 -0.001   -0.002 -0.045 -0.009   -0.002 -0.057 -0.011
 C          0.000  0.001  0.000    0.000 -0.000 -0.000    0.000  0.000  0.000
 H         -0.000  0.013  0.002   -0.000 -0.001 -0.000    0.001 -0.012 -0.002
 C         -0.003  0.001 -0.001    0.000 -0.000  0.000    0.000 -0.000  0.000
 H          0.002  0.001  0.001    0.000  0.000 -0.000   -0.000 -0.001  0.000
 C          0.000 -0.066 -0.004    0.000  0.002  0.000   -0.000  0.002  0.000
 C          0.038 -0.024  0.007   -0.001  0.001 -0.000   -0.001  0.001 -0.000
 C         -0.027 -0.013 -0.008    0.001  0.000  0.000    0.001  0.001  0.000
 C         -0.000 -0.000  0.000   -0.000 -0.000 -0.000    0.000  0.000 -0.000
 H          0.001  0.035  0.007    0.021  0.518  0.101    0.026  0.653  0.127
 H         -0.005 -0.002 -0.000   -0.437 -0.216 -0.004    0.276  0.138  0.003
 H          0.013 -0.008 -0.003    0.381 -0.217 -0.077    0.233 -0.135 -0.048
 H         -0.000 -0.008 -0.001    0.026  0.516  0.099   -0.031 -0.604 -0.116
 H          0.000  0.755  0.049    0.000 -0.018 -0.001   -0.000 -0.020 -0.001
 H         -0.429  0.297 -0.082    0.011 -0.007  0.002    0.014 -0.009  0.003
 H          0.322  0.163  0.093   -0.007 -0.004 -0.002   -0.016 -0.008 -0.005
 H          0.000  0.000 -0.001   -0.000 -0.000 -0.000   -0.000 -0.000  0.000
 O          0.000 -0.000 -0.000   -0.000  0.000  0.000   -0.000  0.000  0.000
 O          0.000  0.000  0.000   -0.000 -0.000 -0.000   -0.000  0.000 -0.000
 TransDip   0.152 -0.120 -0.009    0.004  0.003 -0.000    0.093 -0.022  0.003

 Mode:                82                     83                     84
 Frequency:      3220.37                3222.42                3229.31
 Force Cnst:      6.6893                 6.6969                 6.7355
 Red. Mass:       1.0948                 1.0946                 1.0962
 IR Active:          YES                    YES                    YES
 IR Intens:       11.496                 47.542                 54.365
 Raman Active:       YES                    YES                    YES
               X      Y      Z        X      Y      Z        X      Y      Z
 Ni        -0.000  0.000  0.000   -0.000 -0.000 -0.000   -0.000  0.000  0.000
 N          0.000 -0.000 -0.000    0.000  0.000 -0.000   -0.000  0.000  0.000
 N         -0.000 -0.000 -0.000    0.000 -0.000 -0.000   -0.000 -0.000  0.000
 N         -0.000 -0.000 -0.000   -0.000  0.001  0.000   -0.000 -0.001 -0.000
 N         -0.000 -0.000  0.000   -0.000 -0.000  0.000   -0.000  0.000  0.000
 C         -0.001  0.001  0.000   -0.000 -0.000 -0.000    0.001 -0.000 -0.000
 H          0.001  0.002  0.000   -0.000  0.000  0.000   -0.001 -0.001  0.000
 C          0.002  0.001  0.000   -0.000  0.000  0.000    0.001  0.000 -0.000
 H         -0.001  0.002  0.000   -0.000 -0.000 -0.000   -0.001  0.000  0.000
 C          0.000 -0.045 -0.009    0.000  0.000  0.000    0.001 -0.025 -0.005
 C         -0.046 -0.018  0.001   -0.001 -0.000  0.000   -0.048 -0.023 -0.000
 C          0.039 -0.018 -0.007   -0.001  0.001  0.000   -0.053  0.029  0.011
 C         -0.004 -0.037 -0.007    0.000  0.000  0.000    0.004  0.027  0.005
 C         -0.000 -0.000 -0.000    0.001 -0.000  0.000   -0.000 -0.000 -0.000
 H         -0.000  0.001  0.000    0.001 -0.012 -0.002   -0.001  0.008  0.001
 C          0.000 -0.000 -0.000    0.000 -0.000  0.000   -0.000  0.000 -0.000
 H          0.000  0.000 -0.000   -0.000  0.001 -0.000   -0.000  0.001 -0.000
 C          0.000  0.000  0.000    0.002  0.013  0.001   -0.000 -0.000 -0.000
 C         -0.000  0.000 -0.000   -0.029  0.025 -0.005    0.001 -0.001  0.000
 C         -0.000 -0.000 -0.000   -0.066 -0.038 -0.020    0.001  0.001  0.000
 C         -0.000 -0.000  0.000    0.001 -0.002  0.001   -0.000  0.000  0.000
 H          0.018  0.412  0.080   -0.000 -0.003 -0.001   -0.014 -0.295 -0.057
 H          0.498  0.241  0.003    0.007  0.003  0.000    0.534  0.265  0.005
 H         -0.429  0.241  0.086    0.013 -0.007 -0.003    0.587 -0.336 -0.119
 H          0.024  0.500  0.096   -0.000 -0.004 -0.001    0.011  0.268  0.052
 H         -0.000 -0.002 -0.000   -0.002 -0.147 -0.010    0.000  0.005  0.000
 H          0.002 -0.001  0.000    0.335 -0.236  0.063   -0.008  0.006 -0.002
 H          0.005  0.003  0.001    0.769  0.396  0.223   -0.009 -0.005 -0.003
 H          0.000  0.000 -0.000    0.001  0.004 -0.006    0.000 -0.000 -0.000
 O         -0.000 -0.000 -0.000   -0.000  0.000 -0.000   -0.000 -0.000 -0.000
 O         -0.000 -0.000  0.000   -0.000  0.000  0.000   -0.000 -0.000 -0.000
 TransDip  -0.025 -0.104 -0.020   -0.218  0.030 -0.022   -0.235  0.025  0.012

 Mode:                85                     86                     87
 Frequency:      3529.10                3534.42                3551.62
 Force Cnst:      7.9037                 7.9294                 8.0002
 Red. Mass:       1.0771                 1.0773                 1.0765
 IR Active:          YES                    YES                    YES
 IR Intens:      142.996                 99.828                 90.157
 Raman Active:       YES                    YES                    YES
               X      Y      Z        X      Y      Z        X      Y      Z
 Ni        -0.000  0.000  0.000    0.000  0.000  0.000   -0.000  0.000  0.000
 N         -0.012 -0.069 -0.014    0.002  0.016  0.003    0.001  0.002  0.000
 N          0.002 -0.015 -0.003    0.006 -0.070 -0.014   -0.000  0.003  0.001
 N         -0.000  0.000  0.000    0.000  0.000  0.000    0.000  0.000  0.000
 N         -0.000 -0.003  0.000   -0.000 -0.003 -0.000   -0.012 -0.071  0.000
 C          0.003 -0.000 -0.000   -0.000  0.001  0.000   -0.001 -0.000 -0.000
 H          0.134  0.944  0.195   -0.030 -0.211 -0.044   -0.003 -0.025 -0.005
 C         -0.001  0.001  0.000   -0.002 -0.001  0.000   -0.000  0.000  0.000
 H         -0.012  0.213  0.043   -0.053  0.952  0.191    0.003 -0.042 -0.009
 C         -0.000 -0.000  0.000   -0.001  0.000  0.000    0.000  0.000 -0.000
 C          0.000  0.000  0.000    0.000 -0.000 -0.000   -0.000  0.000  0.000
 C         -0.000 -0.000 -0.000    0.000  0.000  0.000   -0.000 -0.000 -0.000
 C          0.001  0.000  0.000   -0.000 -0.000 -0.000    0.000 -0.000 -0.000
 C          0.000 -0.000 -0.000    0.000  0.000 -0.000   -0.000  0.001  0.000
 H          0.001 -0.002 -0.000   -0.000 -0.001 -0.000    0.000  0.001  0.000
 C         -0.000  0.000 -0.000    0.000 -0.000  0.000    0.002 -0.001  0.000
 H          0.005  0.035 -0.000    0.004  0.036  0.000    0.152  0.984 -0.010
 C          0.000 -0.000  0.000   -0.000  0.000 -0.000    0.001  0.000  0.000
 C          0.000 -0.000 -0.000   -0.000  0.000  0.000   -0.000 -0.000 -0.000
 C         -0.000  0.000 -0.000    0.000 -0.000  0.000    0.000  0.000  0.000
 C         -0.000  0.000  0.000   -0.000 -0.000 -0.000    0.000  0.000  0.000
 H         -0.002 -0.003 -0.000    0.001  0.000  0.000    0.000  0.000  0.000
 H         -0.000 -0.000 -0.000    0.000 -0.000 -0.000   -0.000 -0.000  0.000
 H          0.000 -0.000 -0.000    0.000 -0.000 -0.000   -0.000  0.000 -0.000
 H         -0.000 -0.001 -0.000    0.002 -0.002 -0.001   -0.000 -0.000 -0.000
 H          0.000 -0.000 -0.000   -0.000 -0.000  0.000   -0.002 -0.001  0.000
 H         -0.000  0.000 -0.000    0.001 -0.000  0.000   -0.000 -0.000 -0.000
 H         -0.000 -0.000  0.000   -0.000  0.000 -0.000   -0.001 -0.001 -0.000
 H          0.000 -0.000 -0.000   -0.000 -0.000  0.000   -0.000 -0.000  0.000
 O         -0.000 -0.000 -0.000   -0.000 -0.000 -0.000   -0.000 -0.000 -0.000
 O         -0.000 -0.000 -0.000   -0.000 -0.000 -0.000   -0.000 -0.000 -0.000
 TransDip  -0.162  0.343  0.055    0.263  0.175  0.051   -0.250  0.173  0.003

 STANDARD THERMODYNAMIC QUANTITIES AT   298.15 K  AND     1.00 ATM

   This Molecule has  1 Imaginary Frequencies
   Zero point vibrational energy:      145.799 kcal/mol

   Atom    1 Element Ni Has Mass   57.93530
   Atom    2 Element N  Has Mass   14.00307
   Atom    3 Element N  Has Mass   14.00307
   Atom    4 Element N  Has Mass   14.00307
   Atom    5 Element N  Has Mass   14.00307
   Atom    6 Element C  Has Mass   12.00000
   Atom    7 Element H  Has Mass    1.00783
   Atom    8 Element C  Has Mass   12.00000
   Atom    9 Element H  Has Mass    1.00783
   Atom   10 Element C  Has Mass   12.00000
   Atom   11 Element C  Has Mass   12.00000
   Atom   12 Element C  Has Mass   12.00000
   Atom   13 Element C  Has Mass   12.00000
   Atom   14 Element C  Has Mass   12.00000
   Atom   15 Element H  Has Mass    1.00783
   Atom   16 Element C  Has Mass   12.00000
   Atom   17 Element H  Has Mass    1.00783
   Atom   18 Element C  Has Mass   12.00000
   Atom   19 Element C  Has Mass   12.00000
   Atom   20 Element C  Has Mass   12.00000
   Atom   21 Element C  Has Mass   12.00000
   Atom   22 Element H  Has Mass    1.00783
   Atom   23 Element H  Has Mass    1.00783
   Atom   24 Element H  Has Mass    1.00783
   Atom   25 Element H  Has Mass    1.00783
   Atom   26 Element H  Has Mass    1.00783
   Atom   27 Element H  Has Mass    1.00783
   Atom   28 Element H  Has Mass    1.00783
   Atom   29 Element H  Has Mass    1.00783
   Atom   30 Element O  Has Mass   15.99491
   Atom   31 Element O  Has Mass   15.99491
   Molecular Mass:   302.031360 amu
   Principal axes and moments of inertia in amu*Bohr^2:
                             1           2           3
    Eigenvalues --     1984.90798 10363.00912 12202.55527
          X               0.99512    -0.09463    -0.02794
          Y               0.08732     0.97649    -0.19708
          Z               0.04593     0.19368     0.97999
   Rotational Symmetry Number is   1
   The Molecule is an Asymmetric Top
   Translational Enthalpy:        0.889 kcal/mol
   Rotational Enthalpy:           0.889 kcal/mol
   Vibrational Enthalpy:        153.763 kcal/mol
   gas constant (RT):             0.592 kcal/mol
   Translational Entropy:        43.013  cal/mol.K
   Rotational Entropy:           33.883  cal/mol.K
   Vibrational Entropy:          48.750  cal/mol.K

   Total Enthalpy:              156.133 kcal/mol
   Total Entropy:               125.646  cal/mol.K
Archival summary:
1\1\n42\FREQ\ProcedureUnspecified\6-31+G*\i1241212\nricke\FriMar320:32:302017FriMar320:32:302017\0\\#,FREQ,ProcedureUnspecified,6-31+G*,\\0,1\Ni\N,1,1.8223\H,2,1.0178,1,125.932\C,2,1.36381,1,115.158,3,160.354,0\C,4,1.37902,2,130.51,1,-167.452,0\H,5,1.0872,4,120.068,2,-1.39552,0\C,5,1.44706,4,120.759,2,175.353,0\H,7,1.08722,5,117.381,4,-177.768,0\C,7,1.35605,5,122.933,4,1.46954,0\H,9,1.08624,7,121.644,5,-179.703,0\C,4,1.45911,2,110.807,1,8.4116,0\N,11,1.29801,4,114.029,2,-5.12765,0\H,12,1.0396,11,111.59,4,-175.997,0\C,9,1.50329,7,121.415,5,5.48224,0\H,14,1.1118,9,106.517,7,103.415,0\O,14,1.41279,9,110.641,7,-138.91,0\O,16,1.4885,14,107.693,9,-166.671,0\N,1,1.84163,2,176.811,3,-64.746,0\H,18,1.02025,1,126.605,2,-102.054,0\C,18,1.32089,1,116.482,2,71.7673,0\C,20,1.43268,18,128.298,1,-177.068,0\H,21,1.08642,20,119.511,18,1.16397,0\C,21,1.3684,20,118.504,18,-178.505,0\H,23,1.08621,21,119.864,20,179.7,0\C,23,1.44482,21,121.72,20,-0.175005,0\H,25,1.08637,23,118.359,21,180,0\C,25,1.36864,23,121.897,21,-0.141694,0\H,27,1.08637,25,121.973,23,-179.787,0\C,27,1.43308,25,118.483,23,-0.0407382,0\N,29,1.31982,27,128.386,25,-178.726,0\H,30,1.01982,29,116.989,27,-1.03202,0\\\@

 Total job time:  38916.27s(wall), 39516.76s(cpu) 
 Fri Mar  3 20:32:30 2017

        *************************************************************
        *                                                           *
        *  Thank you very much for using Q-Chem.  Have a nice day.  *
        *                                                           *
        *************************************************************


