n36.ulysses.mit.edu 127.0.1
Q-Chem Developer Version! Running on 127.0.1.*
                  Welcome to Q-Chem
     A Quantum Leap Into The Future Of Chemistry


 Q-Chem 4.4, Q-Chem, Inc., Pleasanton, CA (2016)

 Y. Shao,  Z. Gan,  E. Epifanovsky,  A. T. B. Gilbert,  M. Wormit,  
 J. Kussmann,  A. W. Lange,  A. Behn,  J. Deng,  X. Feng,  D. Ghosh,  
 M. Goldey,  P. R. Horn,  L. D. Jacobson,  I. Kaliman,  F.Rob,  
 R. Z. Khaliullin,  T. Kus,  A. Landau,  J. Liu,  E. I. Proynov,  Y. M. Rhee,  
 R. M. Richard,  M. A. Rohrdanz,  R. P. Steele,  E. J. Sundstrom,  
 H. L. Woodcock III,  P. M. Zimmerman,  D. Zuev,  B. Albrecht,  E. Alguire,  
 B. Austin,  S. A. Baeppler,  G. J. O. Beran,  Y. A. Bernard,  E. Berquist,  
 K. Brandhorst,  K. B. Bravaya,  S. T. Brown,  D. Casanova,  C.-M. Chang,  
 Y. Chen,  S. H. Chien,  K. D. Closser,  M. P. Coons,  D. L. Crittenden,  
 S. Dasgupta,  M. Diedenhofen,  R. A. DiStasio Jr.,  H. Do,  A. D. Dutoi,  
 R. G. Edgar,  P.-T. Fang,  S. Fatehi,  Q. Feng,  L. Fusti-Molnar,  
 A. Ghysels,  A. Golubeva-Zadorozhnaya,  J. Gomes,  A. Gunina,  
 M. W. D. Hanson-Heine,  P. H. P. Harbach,  A. W. Hauser,  E. G. Hohenstein,  
 Z. C. Holden,  K. Hui,  T.-C. Jagau,  H. Ji,  B. Kaduk,  K. Khistyaev,  
 Jaehoon Kim,  Jihan Kim,  R. A. King,  P. Klunzinger,  D. Kosenkov,  
 T. Kowalczyk,  C. M. Krauter,  A. Kunitsa,  K. U. Lao,  A. Laurent,  
 K. V. Lawler,  D. Lefrancois,  S. Lehtola,  S. V. Levchenko,  C. Y. Lin,  
 Y.-S. Lin,  F. Liu,  E. Livshits,  R. C. Lochan,  A. Luenser,  P. Manohar,  
 S. F. Manzer,  S.-P. Mao,  Y. Mao,  N. Mardirossian,  A. V. Marenich,  
 L. A. Martinez-Martinez,  S. A. Maurer,  N. J. Mayhall,  J.-M. Mewes,  
 A. F. Morrison,  K. Nanda,  C. M. Oana,  R. Olivares-Amaya,  D. P. O'Neill,  
 J. A. Parkhill,  T. M. Perrine,  R. Peverati,  P. A. Pieniazek,  F. Plasser,  
 A. Prociuk,  D. R. Rehn,  E. Rosta,  N. J. Russ,  N. Sergueev,  
 S. M. Sharada,  S. Sharma,  D. W. Small,  A. Sodt,  T. Stauch,  T. Stein,  
 D. Stuck,  Y.-C. Su,  A. J. W. Thom,  T. Tsuchimochi,  L. Vogt,  O. Vydrov,  
 T. Wang,  M. A. Watson,  J. Wenzel,  A. White,  C. F. Williams,  
 V. Vanovschi,  S. Yeganeh,  S. R. Yost,  Z.-Q. You,  I. Y. Zhang,  X. Zhang,  
 Y. Zhao,  B. R. Brooks,  G. K. L. Chan,  D. M. Chipman,  C. J. Cramer,  
 W. A. Goddard III,  M. S. Gordon,  W. J. Hehre,  A. Klamt,  
 H. F. Schaefer III,  M. W. Schmidt,  C. D. Sherrill,  D. G. Truhlar,  
 A. Warshel,  X. Xu,  A. Aspuru-Guzik,  R. Baer,  A. T. Bell,  N. A. Besley,  
 J.-D. Chai,  A. Dreuw,  B. D. Dunietz,  T. R. Furlani,  S. R. Gwaltney,  
 C.-P. Hsu,  Y. Jung,  J. Kong,  D. S. Lambrecht,  W. Liang,  C. Ochsenfeld,  
 V. A. Rassolov,  L. V. Slipchenko,  J. E. Subotnik,  T. Van Voorhis,  
 J. M. Herbert,  A. I. Krylov,  P. M. W. Gill,  M. Head-Gordon

 Contributors to earlier versions of Q-Chem not listed above: 
 R. D. Adamson,  J. Baker,  E. F. C. Byrd,  A. K. Chakraborty,  C.-L. Cheng,  
 H. Dachsel,  R. J. Doerksen,  G. Hawkins,  A. Heyden,  S. Hirata,  
 G. Kedziora,  F. J. Keil,  C. Kelley,  P. P. Korambath,  W. Kurlancheek,  
 A. M. Lee,  M. S. Lee,  D. Liotard,  I. Lotan,  P. E. Maslen,  N. Nair,  
 D. Neuhauser,  R. Olson,  B. Peters,  J. Ritchie,  N. E. Schultz,  
 N. Shenvi,  A. C. Simmonett,  K. S. Thanthiriwatte,  Q. Wu,  W. Zhang

 Please cite Q-Chem as follows:
 Y. Shao et al., Mol. Phys. 113, 184-215 (2015)
 DOI: 10.1080/00268976.2014.952696

 Q-Chem 4.4.1 for Intel X86 EM64T Linux

 Parts of Q-Chem use Armadillo 5.200.1 (Boston Tea Smuggler).
 http://arma.sourceforge.net/

 Q-Chem begins on Fri Mar 17 16:08:43 2017  

Host: 
0

     Scratch files written to /scratch/nricke/qchem1153//
Processing $rem in /opt/qchem.20160914/config/preferences.
xc_grid     000075000302
max_scf_cycles  200
geom_opt_max_cycles 200
symmetry    false
sym_ignore  true
Symmetry turned off for PCM calculation

Checking the input file for inconsistencies... 	...done.

--------------------------------------------------------------
User input:
--------------------------------------------------------------
$molecule
-1 2
Ni -0.5482305661 1.5882840930 -0.2106967797
N -1.8670750751 2.8488877135 0.0622612570
N -1.9742513189 0.4186033400 -0.3235090267
N 0.8936820816 2.7545931760 -0.0051326344
N 0.7751523133 0.3124476420 -0.4216385255
C -3.1351899907 2.3809900771 0.1127352195
H -1.7383161647 3.8343269324 0.2818528002
C -3.1993847001 0.9588631649 -0.1398666428
H -1.9377912136 -0.5795552732 -0.5167793298
C -4.4589172935 0.3104189163 -0.1581288853
C -5.6128681350 1.0473452515 0.0814762017
C -5.5481082718 2.4402918268 0.3420845397
C -4.3276510008 3.1046138459 0.3587031479
C 2.0672791257 2.1981273566 0.0088942300
H 0.9534212616 3.7713638852 0.1858557306
C 2.0397639418 0.7433908529 -0.1560855627
H 0.6396627708 -0.6949205415 -0.3736298094
C 3.2165039071 0.0418607614 0.0297794362
C 4.4354838179 0.7335444433 0.3932530764
C 4.5216578971 2.0804056966 0.5330082523
C 3.3531144019 2.9732420196 0.2133696310
H -4.2744375300 4.1738834508 0.5537539420
H -6.5798492216 0.5501004054 0.0713176299
H -6.4655777156 2.9933016789 0.5279378279
H -4.5083882592 -0.7588607770 -0.3539561635
H 3.2227622057 -1.0435058832 -0.0368855841
H 5.3207624000 0.1237068815 0.5639679812
H 5.4553672299 2.5692054622 0.7970896494
H 3.5694091593 3.4832118753 -0.7486411134
O 3.2156842207 3.9716725488 1.2119272491
O 2.2955797219 5.0225291771 0.6949622552
$end

$rem
method b3lyp
basis 6-31+g*
thresh 12
mem_total 4096 
mem_static 512
unrestricted true
jobtype freq
cpscf_nseg 4
mem_total 2048
mem_static 256
solvent_method pcm
$end

$pcm
theory cpcm
method swig
solver inversion
heavypoints 194
hpoints 194
radii bondi
vdwscale 1.2
$end

$solvent
dielectric 78.39
$end

$van_der_waals
1
28  1.63
$end
--------------------------------------------------------------
 ----------------------------------------------------------------
             Standard Nuclear Orientation (Angstroms)
    I     Atom           X                Y                Z
 ----------------------------------------------------------------
    1      Ni     -0.5482305661     1.5882840930    -0.2106967797
    2      N      -1.8670750751     2.8488877135     0.0622612570
    3      N      -1.9742513189     0.4186033400    -0.3235090267
    4      N       0.8936820816     2.7545931760    -0.0051326344
    5      N       0.7751523133     0.3124476420    -0.4216385255
    6      C      -3.1351899907     2.3809900771     0.1127352195
    7      H      -1.7383161647     3.8343269324     0.2818528002
    8      C      -3.1993847001     0.9588631649    -0.1398666428
    9      H      -1.9377912136    -0.5795552732    -0.5167793298
   10      C      -4.4589172935     0.3104189163    -0.1581288853
   11      C      -5.6128681350     1.0473452515     0.0814762017
   12      C      -5.5481082718     2.4402918268     0.3420845397
   13      C      -4.3276510008     3.1046138459     0.3587031479
   14      C       2.0672791257     2.1981273566     0.0088942300
   15      H       0.9534212616     3.7713638852     0.1858557306
   16      C       2.0397639418     0.7433908529    -0.1560855627
   17      H       0.6396627708    -0.6949205415    -0.3736298094
   18      C       3.2165039071     0.0418607614     0.0297794362
   19      C       4.4354838179     0.7335444433     0.3932530764
   20      C       4.5216578971     2.0804056966     0.5330082523
   21      C       3.3531144019     2.9732420196     0.2133696310
   22      H      -4.2744375300     4.1738834508     0.5537539420
   23      H      -6.5798492216     0.5501004054     0.0713176299
   24      H      -6.4655777156     2.9933016789     0.5279378279
   25      H      -4.5083882592    -0.7588607770    -0.3539561635
   26      H       3.2227622057    -1.0435058832    -0.0368855841
   27      H       5.3207624000     0.1237068815     0.5639679812
   28      H       5.4553672299     2.5692054622     0.7970896494
   29      H       3.5694091593     3.4832118753    -0.7486411134
   30      O       3.2156842207     3.9716725488     1.2119272491
   31      O       2.2955797219     5.0225291771     0.6949622552
 ----------------------------------------------------------------
 Nuclear Repulsion Energy =  1776.9395008985 hartrees
 There are       79 alpha and       78 beta electrons
 Requested basis set is 6-31+G(d)
 There are 122 shells and 402 basis functions

 Total QAlloc Memory Limit   2048 MB
 Mega-Array Size       251 MB
 MEM_STATIC part       256 MB
No default van der Waals radius is available for Z = 28
	Found R = 1.6300 A in the $van_der_waals section
Discretize the solute cavity surface with Lebedev spheres
	Using 194 Lebedev grid points for each H atom
	Using 194 Lebedev grid points for other atoms
	Atomic van der Waals radii will be scaled by 1.20
 Serial switch compute.
 Remove points where switching function is < 1.0e-08
 Keep 2564 surface tesserae and discard 3450 interior tesserae
 Molecular Surface Area = 292.125 Angst**2
 A cutoff of  1.0D-12 yielded   5496 shell pairs
 There are     63848 function pairs (     64853 Cartesian)
 
 -------------------------------------------------------
 OpenMP Integral Computing Module                       
 Release: version 1.0, May 2013, Q-Chem Inc. Pittsburgh 
 -------------------------------------------------------
 Integral Job Info:
 Integral job number is                      11
 Integral operator is                         1
 short-range coefficients                     0
 long-range coefficients              100000000
 Omega coefficients                           0
 if combine SR and LR in K                    0
 Integral screening is                        0
 Integral computing path is                   2
 max size of driver memory is            800000
 size of driver memory is                776718
 size of scratch memory is             15346240
 max col of scratch BK array              10000
 max len of scratch array in speh3          662
 max len of scratch index in speh4           32
 max int batch size is                      520
 min int batch size is                       52
 fixed nKL is                                52
 max L of basis functions is                  3
 order of int derivative is                   0
 number of shells is                        122
 number of basis is                         405
 number of cartesian basis is               405
 number of contracted shell pairs          5496
 number of primitive shell pairs          18054
 maxK2 (contraction) of shell pair           36
 max number of K2 of shell pair               1
 max number of CS2 of shell pair            712
 max number of PS2 of shell pair           4260
 mem total for path MDJ                  149752
 -------------------------------------------------------
 Smallest overlap matrix eigenvalue = 9.80E-07
 Linear dependence detected in AO basis
 Number of orthogonalized atomic orbitals = 401
 Maximum deviation from orthogonality = 8.220E-11
 Guess from superposition of atomic densities
 Warning:  Energy on first SCF cycle will be non-variational
 An unrestricted hybrid HF-DFT SCF calculation will be
 performed using Pulay DIIS extrapolation
 Polarizable Continuum solvation model will be applied
 Exchange:     0.2000 Hartree-Fock + 0.0800 Slater + 0.7200 B88
 Correlation:  0.1900 VWN1RPA + 0.8100 LYP
 Using Euler-Maclaurin-Lebedev (75,302) quadrature formula
 SCF converges when DIIS error is below 1.0E-08
 using 2 threads for integral computing 
 -------------------------------------------------------
 OpenMP BLAS3 based DFT computing Module                
 Release: version 1.0, May 2013, Q-Chem Inc. Pittsburgh 
 -------------------------------------------------------
 ---------------------------------------
  Cycle       Energy         DIIS Error
 ---------------------------------------
    1   -2346.0918822644      3.66E-02
    2   -2341.8791840017      4.05E-03
    3   -2341.4053456012      6.84E-03
    4   -2342.0498044825      3.98E-03
    5   -2342.1825595588      2.09E-03
    6   -2342.2277426956      3.83E-04
    7   -2342.2300586662      2.25E-04
    8   -2342.2309971198      6.91E-05
    9   -2342.2311773984      3.71E-05
   10   -2342.2312433397      2.38E-05
   11   -2342.2312826376      5.83E-06
   12   -2342.2312881360      4.35E-06
   13   -2342.2312908386      4.23E-06
   14   -2342.2312921955      2.83E-06
   15   -2342.2312932659      1.81E-06
   16   -2342.2312945082      9.40E-07
   17   -2342.2312949219      3.71E-07
   18   -2342.2312950348      1.36E-07
   19   -2342.2312950379      1.24E-07
   20   -2342.2312950657      3.62E-08
   21   -2342.2312950739      3.10E-08
   22   -2342.2312950779      1.23E-08
   23   -2342.2312950801      8.91E-09 Convergence criterion met
 ---------------------------------------

************** Final PCM Free Energy Summary **************
 G_electrostatic  =      -0.11287607 hartree =     -70.83080147 kcal/mol
 G_cavitation     =       0.00000000 hartree =       0.00000000 kcal/mol
 G_dispersion     =       0.00000000 hartree =       0.00000000 kcal/mol
 G_repulsion      =       0.00000000 hartree =       0.00000000 kcal/mol
 --------------------------------------------------
 Non-electrostatic Free Energy =       0.00000000 hartree =       0.00000000 kcal/mol
 Total                         =      -0.11287607 hartree =     -70.83080147 kcal/mol
 --------------------------------------------------
 SCF Energy (H0 + V/2)                       =   -2342.23129508 
 Solute Internal Energy (H0)                 =   -2342.11841901 
 Total Free Energy (H0 + V/2 + non-elec)     =   -2342.23129508 hartree
                                             = -1469772.32093533 kcal/mol
***********************************************************

 <S^2> = 0.7797
 SCF time:  CPU 1611.33 s  wall 851.35 s
 SCF   energy in the final basis set = -2342.2312950801
 Total energy in the final basis set = -2342.2312950801
 
 --------------------------------------------------------------
 
                    Orbital Energies (a.u.)
 --------------------------------------------------------------
 
 Alpha MOs
 -- Occupied --
******* -35.831 -31.272 -31.263 -31.239 -19.172 -19.102 -14.351
-14.335 -14.333 -14.324 -10.246 -10.245 -10.228 -10.222 -10.221
-10.197 -10.191 -10.189 -10.189 -10.188 -10.187 -10.186  -4.031
 -2.641  -2.623  -2.585  -1.040  -0.943  -0.930  -0.874  -0.867
 -0.833  -0.823  -0.791  -0.731  -0.714  -0.700  -0.693  -0.623
 -0.616  -0.581  -0.576  -0.525  -0.519  -0.503  -0.493  -0.488
 -0.474  -0.465  -0.441  -0.437  -0.429  -0.424  -0.410  -0.408
 -0.403  -0.392  -0.388  -0.369  -0.361  -0.347  -0.340  -0.332
 -0.326  -0.324  -0.323  -0.319  -0.309  -0.293  -0.289  -0.263
 -0.248  -0.235  -0.216  -0.212  -0.194  -0.186  -0.165
 -- Virtual --
 -0.072  -0.027  -0.001   0.007   0.013   0.016   0.017   0.022
  0.025   0.035   0.039   0.040   0.045   0.051   0.057   0.058
  0.061   0.067   0.072   0.078   0.082   0.087   0.092   0.097
  0.100   0.103   0.111   0.116   0.119   0.126   0.129   0.131
  0.134   0.142   0.144   0.148   0.155   0.160   0.162   0.166
  0.169   0.174   0.180   0.183   0.185   0.188   0.191   0.192
  0.197   0.198   0.204   0.207   0.212   0.216   0.218   0.224
  0.227   0.228   0.234   0.235   0.238   0.239   0.246   0.247
  0.252   0.255   0.256   0.264   0.267   0.270   0.271   0.275
  0.279   0.282   0.285   0.290   0.293   0.298   0.303   0.306
  0.310   0.319   0.319   0.323   0.324   0.329   0.333   0.338
  0.349   0.352   0.354   0.358   0.377   0.382   0.394   0.397
  0.401   0.411   0.420   0.426   0.432   0.435   0.442   0.456
  0.460   0.463   0.474   0.488   0.508   0.536   0.586   0.588
  0.592   0.631   0.654   0.664   0.676   0.680   0.686   0.700
  0.719   0.733   0.736   0.738   0.742   0.750   0.755   0.758
  0.765   0.769   0.777   0.783   0.791   0.809   0.822   0.839
  0.851   0.871   0.895   0.896   0.913   0.916   0.927   0.947
  0.950   0.954   0.964   0.967   0.977   0.980   0.990   1.000
  1.011   1.016   1.026   1.044   1.051   1.066   1.077   1.081
  1.089   1.105   1.111   1.128   1.129   1.138   1.159   1.169
  1.171   1.197   1.199   1.221   1.240   1.243   1.245   1.253
  1.261   1.274   1.282   1.291   1.306   1.317   1.327   1.334
  1.338   1.356   1.371   1.386   1.391   1.396   1.409   1.425
  1.433   1.439   1.446   1.476   1.477   1.492   1.496   1.499
  1.513   1.518   1.549   1.554   1.570   1.584   1.598   1.630
  1.656   1.679   1.694   1.719   1.729   1.745   1.754   1.787
  1.797   1.816   1.839   1.844   1.853   1.871   1.896   1.898
  1.922   1.928   1.950   1.953   1.957   1.967   1.980   1.992
  2.007   2.010   2.014   2.025   2.042   2.054   2.079   2.086
  2.101   2.107   2.121   2.124   2.133   2.163   2.183   2.187
  2.208   2.223   2.231   2.251   2.265   2.279   2.287   2.293
  2.304   2.313   2.324   2.334   2.351   2.366   2.384   2.432
  2.461   2.483   2.497   2.504   2.517   2.547   2.561   2.605
  2.612   2.619   2.641   2.643   2.653   2.680   2.682   2.710
  2.723   2.736   2.749   2.758   2.819   2.848   2.859   2.876
  2.927   2.944   2.954   2.995   2.996   3.003   3.026   3.053
  3.175   3.211   3.248   3.273   3.336   3.371   3.436   4.027
  4.164   4.244   4.251   4.292   4.305   4.314   4.344   4.357
  4.406   4.460   4.461   4.465   4.478   4.492   4.567   4.794
  4.837  33.077
 
 Beta MOs
 -- Occupied --
******* -35.826 -31.266 -31.261 -31.233 -19.172 -19.102 -14.352
-14.331 -14.329 -14.323 -10.245 -10.245 -10.229 -10.222 -10.221
-10.198 -10.189 -10.188 -10.187 -10.187 -10.187 -10.186  -4.020
 -2.626  -2.618  -2.569  -1.040  -0.943  -0.924  -0.873  -0.859
 -0.832  -0.819  -0.790  -0.729  -0.711  -0.696  -0.691  -0.622
 -0.614  -0.580  -0.574  -0.524  -0.517  -0.502  -0.492  -0.486
 -0.472  -0.464  -0.441  -0.436  -0.428  -0.423  -0.408  -0.402
 -0.396  -0.391  -0.387  -0.368  -0.359  -0.346  -0.337  -0.329
 -0.321  -0.319  -0.315  -0.308  -0.303  -0.288  -0.283  -0.242
 -0.231  -0.231  -0.215  -0.199  -0.187  -0.177
 -- Virtual --
 -0.108  -0.065  -0.022   0.007   0.008   0.015   0.017   0.022
  0.025   0.027   0.035   0.040   0.040   0.046   0.052   0.057
  0.059   0.061   0.067   0.073   0.079   0.082   0.088   0.092
  0.098   0.100   0.104   0.111   0.116   0.120   0.126   0.130
  0.131   0.134   0.143   0.145   0.149   0.155   0.162   0.163
  0.167   0.171   0.175   0.181   0.183   0.186   0.188   0.192
  0.193   0.198   0.200   0.205   0.208   0.213   0.216   0.219
  0.224   0.228   0.229   0.235   0.236   0.238   0.239   0.247
  0.248   0.252   0.256   0.256   0.265   0.268   0.271   0.271
  0.276   0.280   0.283   0.286   0.291   0.294   0.299   0.304
  0.307   0.310   0.320   0.321   0.324   0.324   0.330   0.333
  0.339   0.350   0.352   0.355   0.359   0.378   0.383   0.395
  0.398   0.402   0.412   0.420   0.426   0.433   0.436   0.443
  0.456   0.462   0.465   0.474   0.488   0.509   0.537   0.587
  0.589   0.593   0.634   0.655   0.666   0.677   0.681   0.687
  0.700   0.722   0.735   0.737   0.743   0.746   0.752   0.757
  0.761   0.767   0.772   0.779   0.784   0.793   0.811   0.823
  0.840   0.852   0.871   0.895   0.897   0.914   0.917   0.927
  0.949   0.951   0.955   0.965   0.968   0.978   0.985   0.996
  1.001   1.014   1.019   1.027   1.045   1.054   1.070   1.079
  1.083   1.091   1.106   1.112   1.129   1.130   1.139   1.161
  1.170   1.172   1.198   1.201   1.222   1.242   1.244   1.248
  1.255   1.262   1.275   1.283   1.292   1.306   1.318   1.328
  1.334   1.344   1.357   1.371   1.388   1.395   1.399   1.411
  1.426   1.435   1.441   1.450   1.477   1.482   1.494   1.498
  1.502   1.516   1.521   1.551   1.556   1.577   1.587   1.600
  1.633   1.658   1.683   1.696   1.720   1.732   1.746   1.755
  1.788   1.800   1.818   1.841   1.846   1.856   1.873   1.899
  1.904   1.923   1.928   1.951   1.955   1.960   1.970   1.982
  1.994   2.008   2.012   2.016   2.030   2.044   2.056   2.079
  2.088   2.104   2.109   2.125   2.126   2.136   2.164   2.186
  2.189   2.213   2.226   2.234   2.253   2.269   2.284   2.290
  2.296   2.307   2.316   2.327   2.336   2.353   2.368   2.387
  2.435   2.463   2.485   2.500   2.507   2.519   2.551   2.562
  2.609   2.614   2.620   2.644   2.648   2.656   2.682   2.684
  2.712   2.725   2.739   2.750   2.760   2.822   2.849   2.860
  2.877   2.928   2.945   2.956   2.996   2.999   3.006   3.027
  3.057   3.176   3.214   3.248   3.274   3.337   3.372   3.437
  4.031   4.165   4.246   4.253   4.294   4.307   4.317   4.347
  4.358   4.409   4.461   4.462   4.468   4.482   4.495   4.567
  4.796   4.838  33.082
 --------------------------------------------------------------
 
          Ground-State Mulliken Net Atomic Charges

     Atom                 Charge (a.u.)    Spin (a.u.)
  --------------------------------------------------------
      1 Ni                    0.348396       0.159696
      2 N                    -0.776496       0.242352
      3 N                    -0.815150       0.209464
      4 N                    -0.591850      -0.048147
      5 N                    -0.794794       0.011965
      6 C                     0.966315       0.019511
      7 H                     0.429834      -0.011300
      8 C                     1.033361       0.038338
      9 H                     0.430311      -0.009721
     10 C                    -0.961218       0.023294
     11 C                    -0.267262       0.078565
     12 C                    -0.274192       0.055648
     13 C                    -0.886676       0.045663
     14 C                     0.963920       0.015699
     15 H                     0.474692       0.001355
     16 C                     1.376931      -0.103063
     17 H                     0.414420      -0.001818
     18 C                    -1.395729       0.248023
     19 C                    -0.231409      -0.100248
     20 C                    -0.265136       0.171111
     21 C                    -0.810284      -0.034086
     22 H                     0.201139      -0.002903
     23 H                     0.197424      -0.004406
     24 H                     0.197216      -0.003375
     25 H                     0.200427      -0.002008
     26 H                     0.206027      -0.010167
     27 H                     0.200824       0.003174
     28 H                     0.204966      -0.007702
     29 H                     0.226900       0.010100
     30 O                    -0.231194       0.003538
     31 O                    -0.771714       0.001446
  --------------------------------------------------------
  Sum of atomic charges =    -1.000000
  Sum of spin   charges =     1.000000

 -----------------------------------------------------------------
                    Cartesian Multipole Moments
 -----------------------------------------------------------------
    Charge (ESU x 10^10)
                -4.8032
    Dipole Moment (Debye)
         X      -6.9395      Y     -21.2855      Z      -3.7135
       Tot      22.6940
    Quadrupole Moments (Debye-Ang)
        XX    -149.5417     XY     -45.4361     YY    -207.5959
        XZ     -11.9411     YZ     -16.7745     ZZ    -135.7004
    Octopole Moments (Debye-Ang^2)
       XXX      44.4202    XXY    -370.5422    XYY    -237.2035
       YYY   -1141.7729    XXZ     -37.8858    XYZ     -66.0995
       YYZ    -102.2468    XZZ      20.2044    YZZ    -265.2314
       ZZZ     -52.8658
    Hexadecapole Moments (Debye-Ang^3)
      XXXX   -7937.5357   XXXY    -371.0689   XXYY   -2593.8838
      XYYY   -1480.5653   YYYY   -6517.6155   XXXZ    -228.5329
      XXYZ    -178.4998   XYYZ    -337.8466   YYYZ    -644.2675
      XXZZ   -1576.7202   XYZZ     -68.0119   YYZZ    -879.2085
      XZZZ    -160.4705   YZZZ    -260.7231   ZZZZ    -305.3827
 -----------------------------------------------------------------
 Calculating MO derivatives via CPSCF
 CPSCF will be done in 4 segments to save memory.
Nuc1stDrvofVij
 Computing fast CPCM-SWIG hessian.
   1         0          24      0.129805    0.010131
   2         0          24      0.023742    0.002973
   3         0          24      0.005016    0.000437
   4         0          24      0.001621    0.000142
   5         0          24      0.000521    0.000047
   6         1          23      0.000167    0.000017
   7         5          19      0.000048    0.000005
   8        23           1      0.000001    0.000001
   9        24           0      0.000000    0.000000    Roots Converged
   1         0          24      0.125208    0.021409
   2         0          24      0.036609    0.004386
   3         0          24      0.005075    0.000651
   4         0          24      0.001529    0.000222
   5         0          24      0.000524    0.000097
   6         4          20      0.000136    0.000024
   7        11          13      0.000042    0.000008
   8        19           5      0.000008    0.000002
   9        24           0      0.000000    0.000000    Roots Converged
   1         0          24      0.075765    0.009376
   2         0          24      0.025432    0.002951
   3         0          24      0.003640    0.000461
   4         0          24      0.001078    0.000200
   5         0          24      0.000323    0.000068
   6         6          18      0.000082    0.000020
   7        14          10      0.000018    0.000005
   8        23           1      0.000002    0.000002
   9        24           0      0.000000    0.000000    Roots Converged
   1         0          24      0.220374    0.104413
   2         0          24      0.104053    0.074606
   3         0          24      0.050772    0.039330
   4         0          24      0.017859    0.013069
   5         2          22      0.006223    0.004658
   6        17           7      0.001740    0.001249
   7        21           3      0.000662    0.000472
   8        21           3      0.000361    0.000298
   9        21           3      0.000203    0.000179
  10        21           3      0.000057    0.000050
  11        22           2      0.000013    0.000012
  12        23           1      0.000003    0.000003
  13        24           0      0.000000    0.000000    Roots Converged
PCM in make_fx.C
PCM in make_fx.C
PCM in make_fx.C
PCM in make_fx.C
 Calculating analytic Hessian of the SCF energy
 Polarizability Matrix (a.u.)
            1           2           3
    1-1194.3198038  65.1835546 -11.3479004
    2  65.1835546-353.0967317 -24.0424216
    3 -11.3479004 -24.0424216-194.2987622

 Q-Chem warning in module /home/akohn/tests/qchem.20160914/qchem/drvman/find_multipole_der.C, line 180:

 Net Molecular Charges From Derivative of Dipole Moment are Inconsistent

 Derivative of Dipole Moment Matrix (a.u.)
            1           2           3
    1   0.6152633  -0.0792038   0.0356267
    2  -0.7845312   0.8388292   0.0699331
    3  -0.3242870   0.1249720   0.4083851
    4   2.4655813  -0.5756441  -0.0217771
    5  -0.0431176  -0.5979793   0.0690741
    6  -0.2040484   0.1644053  -0.5351461
    7   1.6122532   0.1230693   0.0943258
    8  -0.4422006  -0.5720968  -0.0323835
    9  -0.2016641  -0.0091828  -0.6132319
   10  -0.9608200   0.3902669  -0.1222136
   11   0.0579747  -0.7577200  -0.0193149
   12  -0.0565850  -0.0724654  -0.4245462
   13  -2.6156121  -0.2136740  -0.2830803
   14   0.4468847  -0.5274750  -0.1669204
   15   0.4635065  -0.3605676  -0.7174858
   16  -2.5607326   0.6932758   0.0002434
   17  -0.9489417   0.0440286  -0.0853448
   18   0.0935004  -0.1029318   0.0787672
   19   0.3487949   0.0572148   0.0214827
   20  -0.1362968   0.1579764  -0.0531218
   21   0.0142051  -0.0983871   0.3499649
   22  -1.9301803  -0.3498846  -0.1590394
   23   0.9979388  -0.1701148   0.0262686
   24   0.3453326  -0.0395242   0.1196386
   25   0.3175846  -0.1110313  -0.0124801
   26   0.1099505   0.1214362  -0.0453539
   27   0.0085304  -0.0415865   0.3656039
   28   2.1541443   0.2928658   0.0407013
   29   0.1419349   0.0724554   0.0759049
   30  -0.1778513   0.0385122  -0.2405613
   31  -1.6356958  -0.0280887  -0.0233267
   32   2.5065838   0.0698024   0.0440993
   33   0.5940445   0.0575764  -0.2159144
   34  -1.9962608   0.2250223   0.0293538
   35  -2.4017440   0.2774489   0.1024880
   36  -0.2975835   0.0779105  -0.2180279
   37   2.3763112  -0.5054116  -0.1007599
   38  -0.2951916   0.1501885   0.0502846
   39  -0.3285659   0.1154958  -0.2277286
   40   0.9697469  -0.3909658   0.0188457
   41  -1.2461504   0.7415398  -0.1284467
   42  -0.1013326   0.0128055   0.0902532
   43   0.1720521   0.1549842   0.0491693
   44   0.3266610   0.7019901   0.0930645
   45   0.1086739   0.1104935   0.3395124
   46   1.6314435   0.6281670   0.4125407
   47   2.2774708  -0.5845674   0.1244011
   48   0.2302235   0.2193175   0.1996096
   49  -0.0297660   0.0718308  -0.0159756
   50  -0.0717670   0.0709612   0.0065151
   51  -0.1789010   0.1147634   0.3778326
   52  -0.7697986  -0.5688927  -0.1642935
   53   0.6150105   0.2647313   0.1466672
   54   0.2037682  -0.1445236  -0.3146088
   55   1.1056112   0.3461018   0.2543754
   56  -0.1734384   0.4195282   0.1478998
   57   0.1475108   0.1343147  -0.0877863
   58  -0.6390729   0.0105030   0.0960387
   59  -0.2907661  -0.3796548  -0.1845559
   60  -0.5256837  -0.1896674  -0.3891151
   61  -0.2978912  -0.0342956  -0.1531869
   62   0.3004777   0.6426437   0.1630294
   63   0.3861441   0.3934437   0.7728670
   64   0.1010938  -0.0423237   0.0016341
   65   0.1311594  -0.1515251  -0.0633068
   66   0.0349997  -0.0608046   0.1878416
   67  -0.2481922  -0.1068920   0.0065747
   68  -0.1363156   0.0467508  -0.0191655
   69   0.0103648  -0.0214316   0.1960051
   70  -0.2225492   0.1252945   0.0491353
   71   0.1480281   0.0269789  -0.0439883
   72   0.0693419  -0.0449457   0.1905646
   73   0.0889343   0.0170241   0.0117071
   74  -0.1563105  -0.1358836  -0.0634438
   75  -0.0176795  -0.0614304   0.1891625
   76   0.1102894  -0.0414132  -0.0305589
   77   0.0650945  -0.1550648  -0.0335646
   78  -0.0610608  -0.0240206   0.1985983
   79  -0.2505213   0.1349995  -0.0570438
   80   0.1603169  -0.0030776   0.0166701
   81  -0.0809000   0.0331359   0.1765262
   82  -0.1663178  -0.0747725  -0.0848998
   83  -0.1669807   0.0328183  -0.0278422
   84   0.0491123   0.0264231   0.2145684
   85   0.2739579   0.0399054   0.0577776
   86  -0.3703631  -0.0143261   0.1189097
   87  -0.0025678  -0.0427956  -0.1450828
   88  -0.4094605   0.0034645  -0.0679573
   89  -0.1014310  -0.6335050   0.0108648
   90  -0.1273593  -0.2080156  -0.6550022
   91  -0.6104179  -0.1914351   0.1172181
   92  -0.5200787  -0.9975172  -0.2994949
   93  -0.0727669  -0.1012047  -0.6714389
 -----------------------------------------
 Net:  -0.99994  -1.00025  -0.99999
 -----------------------------------------

 
 Direct stationary perturbation theory relativistic correction:
 
 rels  =       6.773967778645
 relv  =     -24.264858118414
 rel2e =       5.177989019848
 E_rel =     -12.312901319921
 
hessian_smooth3
 Computing fast CPCM-SWIG hessian.
calculate q S^(xy) q
 Hessian of the SCF Energy
            1           2           3           4           5           6
    1   0.5497098  -0.0292861  -0.0193992  -0.0701116   0.0391564   0.0154272
    2  -0.0292861   0.3787656   0.0461178   0.0461595  -0.0772726  -0.0198027
    3  -0.0193992   0.0461178   0.1110707   0.0179437  -0.0205586  -0.0050319
    4  -0.0701116   0.0461595   0.0179437   0.4328771   0.1204836  -0.0194356
    5   0.0391564  -0.0772726  -0.0205586   0.1204836   0.6038471   0.1306367
    6   0.0154272  -0.0198027  -0.0050319  -0.0194356   0.1306367  -0.0332851
    7  -0.0781922  -0.0351878   0.0041813  -0.0091753   0.0012081   0.0000376
    8  -0.0443701  -0.0714413  -0.0050967   0.0015214  -0.0204918  -0.0040215
    9   0.0014260  -0.0120231  -0.0007827   0.0035812  -0.0018999   0.0090866
   10  -0.0799096  -0.0374556  -0.0056929  -0.0101500  -0.0116122  -0.0049428
   11  -0.0299879  -0.0688510  -0.0160921   0.0157177  -0.0013833   0.0017250
   12  -0.0078934  -0.0122596  -0.0128556   0.0008002  -0.0009448   0.0024173
   13  -0.0756309   0.0416264   0.0075685   0.0174241  -0.0000313   0.0027689
   14   0.0476205  -0.0844568  -0.0093944  -0.0053845   0.0143089  -0.0005253
   15   0.0079334  -0.0082538   0.0044116  -0.0117835   0.0043888   0.0062132
   16  -0.0913050   0.0113807   0.0005839  -0.2689591  -0.1232131   0.0121741
   17   0.0054742  -0.0070752   0.0171357  -0.0768576  -0.1162739  -0.0269996
   18   0.0151747  -0.0049891  -0.0013616   0.0254029  -0.0048174   0.0104955
   19   0.0113497   0.0068690   0.0013378  -0.0369402  -0.0234786  -0.0011976
   20  -0.0065822  -0.0002824  -0.0014156  -0.0556707  -0.3916524  -0.0884669
   21  -0.0006332   0.0010349  -0.0035431  -0.0106514  -0.0989417   0.0049144
   22  -0.0183810  -0.0063423   0.0025857   0.0016118  -0.0257630  -0.0004347
   23  -0.0063260   0.0243218  -0.0187885  -0.0257550  -0.0293176   0.0051958
   24   0.0030077   0.0055011   0.0196476  -0.0095841  -0.0116229  -0.0035330
   25   0.0100550  -0.0079929  -0.0031453  -0.0024431   0.0002520   0.0001315
   26   0.0062315  -0.0028450   0.0010574  -0.0008082   0.0067202   0.0000892
   27   0.0003474   0.0016812  -0.0042872   0.0004725   0.0012870  -0.0016703
   28  -0.0078469   0.0190390   0.0059997  -0.0060321   0.0065436  -0.0015667
   29   0.0106942  -0.0207373   0.0038288  -0.0017503  -0.0127807  -0.0060188
   30  -0.0032287  -0.0019623  -0.0243547  -0.0000965  -0.0018588   0.0017394
   31  -0.0091661   0.0011275   0.0007937  -0.0003868  -0.0018654  -0.0008736
   32   0.0024812   0.0034019   0.0016537  -0.0155937   0.0042425   0.0017514
   33  -0.0004424  -0.0003467   0.0030357  -0.0023307   0.0005777  -0.0006754
   34  -0.0067793  -0.0051768  -0.0021605   0.0184783  -0.0019939  -0.0031946
   35  -0.0011049  -0.0059922  -0.0017215   0.0171232  -0.0065231  -0.0043231
   36  -0.0002146  -0.0000836  -0.0025010   0.0015657  -0.0017056   0.0047995
   37  -0.0144031  -0.0137889  -0.0010298  -0.0670201   0.0185764   0.0052918
   38  -0.0060547  -0.0313125  -0.0022393  -0.0066938   0.0250460   0.0080156
   39  -0.0102591   0.0045304  -0.0344777   0.0042230   0.0066001   0.0076959
   40   0.0495908  -0.0095707  -0.0021867  -0.0085989   0.0106047   0.0187896
   41  -0.0108338   0.0624106   0.0372874  -0.0243162   0.0359994  -0.0088094
   42   0.0134320   0.0011977   0.0655599  -0.0052947   0.0067213   0.0030163
   43   0.0075729  -0.0042854  -0.0007764   0.0021342   0.0017307   0.0001070
   44  -0.0027104   0.0002152  -0.0045075   0.0013942  -0.0024187   0.0006775
   45  -0.0015121   0.0004546  -0.0046558   0.0001992  -0.0004718  -0.0003644
   46  -0.1200989   0.0075824  -0.0041653  -0.0169259   0.0167666  -0.0179298
   47   0.0501999   0.0019291  -0.0180980   0.0230742  -0.0398191   0.0083370
   48  -0.0166866   0.0076801  -0.0101148   0.0066459  -0.0085213  -0.0049370
   49   0.0128143   0.0077735  -0.0015281  -0.0033133   0.0003712   0.0004431
   50  -0.0061371  -0.0010325   0.0058219  -0.0033871   0.0028896  -0.0005171
   51  -0.0024252  -0.0019651  -0.0030839   0.0039196  -0.0016195   0.0000519
   52  -0.0747500   0.0034897   0.0051301   0.0173302  -0.0149112  -0.0063782
   53  -0.0078069  -0.0842724  -0.0095066  -0.0087926   0.0003595   0.0027796
   54   0.0097917  -0.0040233  -0.0789223  -0.0076223   0.0014627  -0.0029015
   55   0.0011566  -0.0024024  -0.0016148  -0.0008729  -0.0008557   0.0000137
   56  -0.0014562   0.0002670   0.0003539   0.0007416   0.0000264  -0.0012056
   57  -0.0049959  -0.0006764  -0.0062033   0.0026405  -0.0004623   0.0004173
   58  -0.0062305   0.0082573   0.0007547   0.0045045  -0.0004007  -0.0010126
   59   0.0023293  -0.0034235  -0.0020586   0.0043457  -0.0019046   0.0005421
   60   0.0045308   0.0012552  -0.0005231  -0.0008628   0.0007898  -0.0012794
   61   0.0102264   0.0019690  -0.0015250  -0.0027892  -0.0093848   0.0032335
   62  -0.0149959  -0.0155748  -0.0053553  -0.0017852   0.0015856   0.0005225
   63  -0.0051432  -0.0015037  -0.0110898   0.0028215  -0.0000431   0.0028939
   64   0.0007233  -0.0001334   0.0000372   0.0040128  -0.0005873  -0.0008644
   65   0.0023219   0.0022470   0.0002917  -0.0021459   0.0020134   0.0013426
   66   0.0008238   0.0004194  -0.0005270  -0.0009669   0.0007223  -0.0010339
   67  -0.0016060  -0.0002342   0.0002021   0.0007983   0.0000857  -0.0004692
   68  -0.0004698  -0.0003732   0.0001652   0.0003767   0.0004111  -0.0003050
   69  -0.0000084   0.0000718  -0.0006568   0.0000482   0.0000177   0.0005144
   70  -0.0016115  -0.0012069   0.0001535  -0.0005559   0.0017775   0.0000149
   71   0.0006379   0.0004395   0.0000548  -0.0009483   0.0004187   0.0002396
   72   0.0002845   0.0003353  -0.0007821  -0.0003453  -0.0000886   0.0004113
   73   0.0004819   0.0001929   0.0000341  -0.0001194  -0.0014266  -0.0004749
   74  -0.0023003   0.0006520  -0.0002474   0.0006551   0.0000212  -0.0006808
   75   0.0000729   0.0003277  -0.0007261   0.0000862   0.0001569  -0.0004379
   76   0.0003149  -0.0002745  -0.0000375   0.0000103  -0.0001602   0.0000335
   77   0.0013386   0.0025729   0.0025989  -0.0048809   0.0008280   0.0001443
   78   0.0000595   0.0003280  -0.0002430   0.0001103  -0.0000553  -0.0000290
   79  -0.0009011  -0.0010927  -0.0016352   0.0034442  -0.0003527   0.0000184
   80   0.0002983   0.0003403   0.0009156  -0.0019904   0.0003055  -0.0000300
   81  -0.0000881  -0.0001566  -0.0005235   0.0006743  -0.0000509  -0.0000330
   82  -0.0014145  -0.0000203  -0.0016936   0.0034974  -0.0003671   0.0002915
   83  -0.0007287  -0.0003856  -0.0009864   0.0018733  -0.0001739   0.0000853
   84  -0.0003475   0.0002371  -0.0004513   0.0004413  -0.0001803   0.0001073
   85  -0.0005796   0.0002849  -0.0015558   0.0001452  -0.0002207   0.0002994
   86  -0.0000826   0.0003283  -0.0016806   0.0020194  -0.0000745  -0.0000021
   87   0.0013680  -0.0010336   0.0021946  -0.0022701   0.0004420  -0.0000767
   88   0.0003062  -0.0020659   0.0021182  -0.0009868   0.0003455  -0.0002207
   89  -0.0009039  -0.0002495  -0.0020258   0.0014485  -0.0002960   0.0001835
   90  -0.0032937  -0.0036038   0.0014371  -0.0013879   0.0004830  -0.0001035
   91   0.0045320   0.0007379  -0.0012887  -0.0009302  -0.0012750  -0.0000669
   92   0.0033691  -0.0023203   0.0024672  -0.0001794   0.0013628  -0.0005614
   93   0.0029393   0.0015261   0.0003466   0.0010550  -0.0004235   0.0006109
            7           8           9          10          11          12
    1  -0.0781922  -0.0443701   0.0014260  -0.0799096  -0.0299879  -0.0078934
    2  -0.0351878  -0.0714413  -0.0120231  -0.0374556  -0.0688510  -0.0122596
    3   0.0041813  -0.0050967  -0.0007827  -0.0056929  -0.0160921  -0.0128556
    4  -0.0091753   0.0015214   0.0035812  -0.0101500   0.0157177   0.0008002
    5   0.0012081  -0.0204918  -0.0018999  -0.0116122  -0.0013833  -0.0009448
    6   0.0000376  -0.0040215   0.0090866  -0.0049428   0.0017250   0.0024173
    7   0.4403632  -0.0838360  -0.0488781   0.0102237   0.0005594   0.0006614
    8  -0.0838360   0.6290679   0.1324110   0.0018071   0.0136308   0.0028680
    9  -0.0488781   0.1324110  -0.0343737  -0.0007556   0.0001858   0.0053311
   10   0.0102237   0.0018071  -0.0007556   0.5301883  -0.1275011   0.0219954
   11   0.0005594   0.0136308   0.0001858  -0.1275011   0.6045216   0.1048632
   12   0.0006614   0.0028680   0.0053311   0.0219954   0.1048632  -0.0449286
   13  -0.0051323   0.0098645   0.0035258   0.0047746  -0.0064056  -0.0042288
   14  -0.0166917   0.0027142   0.0017959  -0.0011567  -0.0144169  -0.0079003
   15  -0.0054916  -0.0006772   0.0032618   0.0018074  -0.0001396  -0.0008241
   16   0.0049725   0.0188374   0.0069706  -0.0027111  -0.0013404   0.0047453
   17   0.0235745  -0.0286631  -0.0085510   0.0125745   0.0320355   0.0070428
   18   0.0091423  -0.0132857   0.0002498   0.0050466   0.0058363  -0.0082543
   19  -0.0015275   0.0011188  -0.0000852   0.0014673  -0.0032538  -0.0006626
   20   0.0009223   0.0064881   0.0004401   0.0007085  -0.0043849  -0.0003546
   21  -0.0006539   0.0018752  -0.0013264   0.0003294  -0.0011986  -0.0010627
   22  -0.2747283   0.1233214   0.0382086  -0.0040231  -0.0159650  -0.0064093
   23   0.0802885  -0.1341065  -0.0296698  -0.0095439  -0.0395429  -0.0078773
   24   0.0312389  -0.0297883   0.0052777  -0.0016829  -0.0051832   0.0065043
   25  -0.0391063  -0.0114498   0.0026228  -0.0032991  -0.0012479   0.0001724
   26   0.0208071  -0.4039937  -0.0814796   0.0007372   0.0053913   0.0011959
   27   0.0088528  -0.0810255   0.0066194   0.0006106   0.0010170   0.0009112
   28  -0.0632083  -0.0091215  -0.0000788   0.0012552   0.0061941   0.0016238
   29   0.0132939   0.0252464   0.0027653   0.0018232   0.0052411   0.0009767
   30   0.0050729   0.0027247   0.0042807   0.0009149   0.0003935   0.0009318
   31   0.0163064  -0.0014012  -0.0006276   0.0007358   0.0011948   0.0000992
   32  -0.0165695  -0.0041068  -0.0004439  -0.0026503  -0.0012024  -0.0004209
   33  -0.0039413  -0.0014290   0.0046997  -0.0005150  -0.0000293  -0.0005483
   34  -0.0016286   0.0019268   0.0008746   0.0016292   0.0016742   0.0005838
   35   0.0128290   0.0011777  -0.0007694   0.0006855   0.0005024   0.0000429
   36   0.0018922   0.0000154  -0.0005222   0.0000067  -0.0001691   0.0000056
   37  -0.0007384  -0.0042972  -0.0027521   0.0042879   0.0032838   0.0013518
   38  -0.0010177  -0.0121559  -0.0021127  -0.0032666  -0.0068646  -0.0007507
   39   0.0004106  -0.0041167   0.0010186   0.0005571   0.0002678  -0.0027861
   40  -0.0176011  -0.0192532   0.0007404  -0.4167440   0.1982281  -0.0194757
   41  -0.0268625  -0.0296582  -0.0003847   0.1277789  -0.1546653  -0.0246573
   42  -0.0083465  -0.0033508  -0.0002703  -0.0284024  -0.0238902  -0.0141871
   43  -0.0018095  -0.0000986  -0.0001274  -0.0229218  -0.0379941  -0.0061122
   44   0.0036419   0.0024079  -0.0001539  -0.0033151  -0.3529773  -0.0644791
   45   0.0007550   0.0005526   0.0003048  -0.0002786  -0.0671969  -0.0031900
   46   0.0010583   0.0006505  -0.0019483  -0.0024816   0.0416699   0.0229151
   47   0.0222703   0.0237942  -0.0009999   0.0235338  -0.0403637  -0.0075115
   48   0.0063368   0.0032820  -0.0010342   0.0089073  -0.0021822   0.0220141
   49   0.0017781  -0.0027728  -0.0003903  -0.0005129   0.0020080   0.0005081
   50  -0.0030122  -0.0008412  -0.0003792  -0.0016891   0.0088912   0.0032245
   51   0.0011246   0.0007187  -0.0011029   0.0012767  -0.0015758  -0.0003799
   52   0.0044524   0.0126451  -0.0025653   0.0254443  -0.0095224  -0.0123655
   53   0.0010695   0.0005851   0.0013160   0.0088836  -0.0043805   0.0106424
   54  -0.0039991  -0.0011565   0.0000880  -0.0112876   0.0133955   0.0247826
   55   0.0006082   0.0011180   0.0006616  -0.0045402  -0.0024954   0.0011028
   56   0.0012167  -0.0003106   0.0006533  -0.0102584   0.0070305  -0.0000697
   57   0.0020464   0.0008044  -0.0001893   0.0067475  -0.0042568   0.0018126
   58   0.0012259  -0.0002992  -0.0004901  -0.0082972  -0.0048755  -0.0057504
   59   0.0023217  -0.0001101  -0.0009178   0.0092611  -0.0051491   0.0012842
   60  -0.0002792  -0.0006756   0.0002963  -0.0124327   0.0045097   0.0011136
   61   0.0053211   0.0052706   0.0004827  -0.0307738  -0.0166527   0.0114954
   62  -0.0011953  -0.0002989   0.0002765   0.0230492   0.0316587  -0.0010516
   63   0.0010476   0.0000729  -0.0002930   0.0248161  -0.0105736   0.0213191
   64   0.0000616   0.0014189   0.0003460   0.0000549  -0.0000289  -0.0000042
   65  -0.0000539   0.0002761  -0.0001735   0.0000369  -0.0023043  -0.0003903
   66   0.0000012  -0.0000751  -0.0003895  -0.0000341  -0.0004237  -0.0001424
   67  -0.0012410  -0.0020406   0.0000147   0.0002392   0.0015800   0.0004151
   68   0.0006240   0.0002940   0.0001105   0.0001992   0.0009435   0.0002604
   69   0.0003647   0.0001782   0.0001511   0.0000120   0.0000108  -0.0000758
   70   0.0001613  -0.0003875   0.0001741   0.0002364   0.0015419   0.0003700
   71  -0.0000294   0.0005946  -0.0001039  -0.0000772  -0.0009712  -0.0002397
   72  -0.0000572   0.0000730   0.0005365  -0.0000780  -0.0003176   0.0000434
   73   0.0042814   0.0005192  -0.0002334   0.0001062   0.0004285   0.0000977
   74   0.0017007   0.0015013   0.0007924   0.0006859   0.0025197   0.0005940
   75  -0.0002188   0.0004354  -0.0010435   0.0000771   0.0004024   0.0002475
   76   0.0000626  -0.0001251  -0.0000007   0.0001692   0.0018756   0.0003535
   77  -0.0034398  -0.0000775   0.0002236   0.0005017   0.0016807   0.0003062
   78   0.0001732  -0.0000352  -0.0000771  -0.0002963   0.0007374  -0.0005850
   79   0.0028092  -0.0000413  -0.0001833   0.0000037  -0.0014495  -0.0003307
   80  -0.0014519  -0.0000393   0.0000985  -0.0000235   0.0015155   0.0002263
   81   0.0005538  -0.0000282  -0.0000282   0.0002474  -0.0003843   0.0001502
   82   0.0027121  -0.0000370  -0.0003388  -0.0010442  -0.0031060  -0.0012887
   83   0.0017007   0.0000361  -0.0001837   0.0010842   0.0001160  -0.0004082
   84   0.0002939   0.0001234  -0.0001524  -0.0009470  -0.0011176   0.0012921
   85  -0.0003734   0.0002461   0.0000442   0.0043668  -0.0008882  -0.0032987
   86   0.0015216  -0.0000500  -0.0002303   0.0010498  -0.0006645  -0.0023524
   87  -0.0019085  -0.0004669   0.0002766  -0.0024591   0.0034306   0.0005640
   88  -0.0014986  -0.0006130  -0.0002092   0.0047719   0.0008186   0.0025402
   89   0.0011696   0.0001324  -0.0003234   0.0088874  -0.0023069   0.0040684
   90  -0.0010244  -0.0008774   0.0001552  -0.0039296   0.0050704   0.0014670
   91  -0.0004154  -0.0001192  -0.0000090  -0.0025325  -0.0140169  -0.0039654
   92  -0.0013627  -0.0015913  -0.0002541  -0.0147425  -0.0152486  -0.0059127
   93   0.0005976  -0.0000194  -0.0000524   0.0004011  -0.0071204  -0.0011106
           13          14          15          16          17          18
    1  -0.0756309   0.0476205   0.0079334  -0.0913050   0.0054742   0.0151747
    2   0.0416264  -0.0844568  -0.0082538   0.0113807  -0.0070752  -0.0049891
    3   0.0075685  -0.0093944   0.0044116   0.0005839   0.0171357  -0.0013616
    4   0.0174241  -0.0053845  -0.0117835  -0.2689591  -0.0768576   0.0254029
    5  -0.0000313   0.0143089   0.0043888  -0.1232131  -0.1162739  -0.0048174
    6   0.0027689  -0.0005253   0.0062132   0.0121741  -0.0269996   0.0104955
    7  -0.0051323  -0.0166917  -0.0054916   0.0049725   0.0235745   0.0091423
    8   0.0098645   0.0027142  -0.0006772   0.0188374  -0.0286631  -0.0132857
    9   0.0035258   0.0017959   0.0032618   0.0069706  -0.0085510   0.0002498
   10   0.0047746  -0.0011567   0.0018074  -0.0027111   0.0125745   0.0050466
   11  -0.0064056  -0.0144169  -0.0001396  -0.0013404   0.0320355   0.0058363
   12  -0.0042288  -0.0079003  -0.0008241   0.0047453   0.0070428  -0.0082543
   13   0.4365280   0.0948367   0.0517794  -0.0095522   0.0043298   0.0009588
   14   0.0948367   0.6211817   0.0125842   0.0080366  -0.0170219  -0.0047882
   15   0.0517794   0.0125842  -0.0369797   0.0193353  -0.0139981   0.0007883
   16  -0.0095522   0.0080366   0.0193353   0.9812742  -0.0198087  -0.0948119
   17   0.0043298  -0.0170219  -0.0139981  -0.0198087   0.7362042   0.0755298
   18   0.0009588  -0.0047882   0.0007883  -0.0948119   0.0755298   0.4144307
   19  -0.0032146   0.0002925  -0.0004623   0.0039560  -0.0270348  -0.0075486
   20  -0.0005849   0.0034406   0.0020191   0.0128966   0.0339929   0.0019096
   21  -0.0007274   0.0010618   0.0004574   0.0047506   0.0157128  -0.0054038
   22  -0.0072691   0.0117739   0.0007952  -0.2006810   0.0364173  -0.0024961
   23  -0.0061272   0.0148096   0.0143226  -0.0393740  -0.3136889  -0.0115547
   24  -0.0012520   0.0029707  -0.0020741   0.0003215  -0.0271506  -0.2672808
   25   0.0026447   0.0024205  -0.0001153  -0.0041975   0.0082388   0.0025036
   26   0.0003181  -0.0011622  -0.0030438   0.0258396  -0.0437548  -0.0084042
   27   0.0000001  -0.0002838  -0.0013306   0.0052527  -0.0110856   0.0082984
   28   0.0069855  -0.0099897  -0.0044905  -0.0559586  -0.0540336  -0.0110404
   29   0.0010483  -0.0027585  -0.0019122  -0.0365940   0.0071317   0.0241041
   30   0.0010766   0.0005331  -0.0013175  -0.0051043   0.0171526  -0.0247888
   31  -0.0019453   0.0013883   0.0004146   0.0095031  -0.0097449   0.0011078
   32   0.0041965  -0.0027229  -0.0025989   0.0410429  -0.0388984  -0.0027100
   33   0.0009021  -0.0008839  -0.0004711   0.0016094  -0.0034897  -0.0414922
   34  -0.0028693   0.0010153   0.0025031  -0.0809028   0.0096510   0.0191137
   35  -0.0021395   0.0007989   0.0029223   0.0000486   0.0372308   0.0019809
   36   0.0000591   0.0000467  -0.0000110   0.0068518   0.0034261   0.0266472
   37   0.0033611  -0.0057732  -0.0049234  -0.2869833   0.0881204   0.0336457
   38  -0.0019325   0.0054489   0.0021811   0.1132093  -0.2375023  -0.0507880
   39   0.0006698   0.0003640   0.0018393   0.0491361  -0.0406565  -0.1176316
   40   0.0214565  -0.0242608  -0.0046273  -0.0109398  -0.0205789  -0.0097424
   41   0.0139526  -0.0214030  -0.0224512   0.0339775  -0.1299102  -0.0218961
   42   0.0139508   0.0004445   0.0170810   0.0005068  -0.0494453   0.0485790
   43  -0.0002361  -0.0004352  -0.0002118  -0.0013167  -0.0017232  -0.0001075
   44  -0.0003978   0.0056918   0.0027137   0.0011008   0.0194504   0.0026501
   45  -0.0000041   0.0014450   0.0000689  -0.0000665   0.0033664  -0.0002153
   46  -0.2933797  -0.0752304  -0.0572206  -0.0064580  -0.0213504   0.0006251
   47  -0.0720403  -0.1569387   0.0136023  -0.0150786   0.1127421   0.0229946
   48  -0.0755554  -0.0270798  -0.0310445  -0.0078733   0.0528104  -0.0449403
   49  -0.0415565  -0.0275456  -0.0014186   0.0008359  -0.0018030   0.0001950
   50  -0.0561468  -0.4096343   0.0082098   0.0129808  -0.0235563  -0.0040674
   51   0.0049602   0.0354087   0.0168266  -0.0030223   0.0011385   0.0019235
   52  -0.0661665  -0.0141564  -0.0066189   0.0281622   0.0273289   0.0112854
   53  -0.0274245   0.0395557  -0.0078281  -0.0261268  -0.0081731  -0.0019769
   54  -0.0067658  -0.0036248   0.0046381   0.0089798  -0.0155896  -0.0275231
   55   0.0134430   0.0036238   0.0068466   0.0003494   0.0034078   0.0010278
   56   0.0141861  -0.0029166   0.0044677  -0.0003792  -0.0088152  -0.0012481
   57   0.0050761   0.0022118   0.0103429  -0.0027996   0.0120044   0.0013431
   58   0.0015399  -0.0014666   0.0025114   0.0017253   0.0009590   0.0010377
   59  -0.0149579  -0.0040357  -0.0016398  -0.0073684   0.0166276   0.0029242
   60  -0.0036445  -0.0012588  -0.0048803   0.0031929  -0.0131273  -0.0025082
   61  -0.0014737   0.0098342  -0.0003499  -0.0103489   0.0149916  -0.0028994
   62   0.0062324   0.0071119  -0.0025743   0.0010963  -0.0073610  -0.0029523
   63  -0.0033794  -0.0006165   0.0153226  -0.0077674   0.0181190   0.0116987
   64   0.0000969  -0.0001922  -0.0001066   0.0042739   0.0222810   0.0045423
   65  -0.0001855   0.0007045   0.0003978  -0.0099290   0.0140073   0.0029259
   66  -0.0000707   0.0001310   0.0001276  -0.0023318  -0.0000959   0.0035402
   67  -0.0003030   0.0000597  -0.0002637   0.0036574  -0.0127988  -0.0024700
   68  -0.0001838  -0.0000013  -0.0001631   0.0022646  -0.0064815  -0.0011871
   69  -0.0000239  -0.0000213   0.0000550  -0.0000882  -0.0000963  -0.0005273
   70  -0.0003460  -0.0000099  -0.0001471   0.0030683  -0.0231497  -0.0031825
   71   0.0000929   0.0000943   0.0000819  -0.0084756   0.0100981   0.0008401
   72   0.0000890   0.0000277  -0.0000189  -0.0012608   0.0024883   0.0081499
   73   0.0001617   0.0001007  -0.0001871  -0.0033548  -0.0048937   0.0004810
   74  -0.0004778   0.0000569  -0.0008532   0.0007008  -0.0196314  -0.0051570
   75  -0.0000774   0.0000683  -0.0001923   0.0012936  -0.0042954   0.0074821
   76   0.0042016  -0.0007661   0.0013032  -0.0006333   0.0012167   0.0001830
   77   0.0025658   0.0017258  -0.0019741   0.0070483  -0.0113841  -0.0020913
   78   0.0007610  -0.0002515  -0.0020454   0.0002314  -0.0011057   0.0000098
   79  -0.0047153   0.0019999   0.0008487  -0.0040568   0.0068195   0.0014006
   80   0.0014734   0.0002291  -0.0004845   0.0024108  -0.0047350  -0.0009286
   81  -0.0008767   0.0005142   0.0004363  -0.0008362   0.0014517   0.0003567
   82  -0.0031725   0.0007682   0.0010360  -0.0036998   0.0078118   0.0016551
   83  -0.0024623   0.0005347   0.0004408  -0.0019911   0.0035543   0.0007958
   84   0.0000400  -0.0000702   0.0006434  -0.0006374   0.0024711   0.0005512
   85   0.0013747   0.0002260   0.0006355   0.0000944   0.0036648   0.0004938
   86  -0.0014991   0.0001782   0.0002646  -0.0018787   0.0033833   0.0007917
   87   0.0021415  -0.0007833  -0.0012066   0.0018127  -0.0090529  -0.0017897
   88   0.0020669  -0.0015655  -0.0001592   0.0001712  -0.0063605  -0.0013231
   89  -0.0015626  -0.0010664   0.0009293  -0.0008522   0.0067049   0.0007894
   90   0.0009065  -0.0023957  -0.0003683   0.0000845  -0.0078314  -0.0011485
   91   0.0008859   0.0006248   0.0008270   0.0001422   0.0033099   0.0005925
   92  -0.0001543  -0.0000402  -0.0009386  -0.0005288  -0.0101862  -0.0011878
   93  -0.0006147   0.0002951   0.0002486  -0.0013150   0.0027612   0.0004091
           19          20          21          22          23          24
    1   0.0113497  -0.0065822  -0.0006332  -0.0183810  -0.0063260   0.0030077
    2   0.0068690  -0.0002824   0.0010349  -0.0063423   0.0243218   0.0055011
    3   0.0013378  -0.0014156  -0.0035431   0.0025857  -0.0187885   0.0196476
    4  -0.0369402  -0.0556707  -0.0106514   0.0016118  -0.0257550  -0.0095841
    5  -0.0234786  -0.3916524  -0.0989417  -0.0257630  -0.0293176  -0.0116229
    6  -0.0011976  -0.0884669   0.0049144  -0.0004347   0.0051958  -0.0035330
    7  -0.0015275   0.0009223  -0.0006539  -0.2747283   0.0802885   0.0312389
    8   0.0011188   0.0064881   0.0018752   0.1233214  -0.1341065  -0.0297883
    9  -0.0000852   0.0004401  -0.0013264   0.0382086  -0.0296698   0.0052777
   10   0.0014673   0.0007085   0.0003294  -0.0040231  -0.0095439  -0.0016829
   11  -0.0032538  -0.0043849  -0.0011986  -0.0159650  -0.0395429  -0.0051832
   12  -0.0006626  -0.0003546  -0.0010627  -0.0064093  -0.0078773   0.0065043
   13  -0.0032146  -0.0005849  -0.0007274  -0.0072691  -0.0061272  -0.0012520
   14   0.0002925   0.0034406   0.0010618   0.0117739   0.0148096   0.0029707
   15  -0.0004623   0.0020191   0.0004574   0.0007952   0.0143226  -0.0020741
   16   0.0039560   0.0128966   0.0047506  -0.2006810  -0.0393740   0.0003215
   17  -0.0270348   0.0339929   0.0157128   0.0364173  -0.3136889  -0.0271506
   18  -0.0075486   0.0019096  -0.0054038  -0.0024961  -0.0115547  -0.2672808
   19   0.0313961   0.0540229   0.0076125  -0.0081612  -0.0124744   0.0001776
   20   0.0540229   0.3906908   0.0906345  -0.0286130  -0.0416230  -0.0004271
   21   0.0076125   0.0906345   0.0017140  -0.0037846  -0.0130626   0.0093982
   22  -0.0081612  -0.0286130  -0.0037846   0.9789271   0.0095823  -0.0399686
   23  -0.0124744  -0.0416230  -0.0130626   0.0095823   0.7080060   0.0664183
   24   0.0001776  -0.0004271   0.0093982  -0.0399686   0.0664183   0.4092812
   25   0.0002127  -0.0007302  -0.0002198   0.0057616   0.0299605   0.0046683
   26   0.0010013   0.0024727   0.0006660  -0.0098515   0.0350799   0.0039673
   27   0.0001958   0.0005305   0.0004523  -0.0036883   0.0068438  -0.0080709
   28  -0.0000267   0.0050564   0.0013497  -0.2991918  -0.0691377   0.0070899
   29  -0.0002306   0.0043685   0.0013524  -0.1110802  -0.2242788  -0.0226639
   30  -0.0001329  -0.0011444   0.0001426  -0.0015106  -0.0193296  -0.1129203
   31   0.0004449   0.0012728   0.0002023  -0.0703849   0.0109728   0.0043543
   32  -0.0013459  -0.0010785  -0.0004335   0.0105316   0.0426089  -0.0004485
   33  -0.0001719   0.0005527   0.0002225   0.0150898   0.0037697   0.0343815
   34   0.0030376   0.0098860   0.0022341  -0.0063126  -0.0057068  -0.0136596
   35   0.0023458   0.0048345   0.0013265  -0.0440295  -0.0470325   0.0049413
   36   0.0000869  -0.0001265  -0.0004534  -0.0126045  -0.0000978  -0.0490289
   37  -0.0003317   0.0036163  -0.0009133  -0.0793805   0.0448027   0.0122426
   38   0.0002769  -0.0082594  -0.0007820   0.0276619  -0.0174314   0.0164041
   39  -0.0002139  -0.0038945  -0.0067935   0.0056677   0.0096654  -0.0608815
   40   0.0013583  -0.0061787  -0.0017284   0.0299289   0.0271813   0.0033672
   41   0.0032131   0.0305012   0.0078944   0.0404908   0.1423349   0.0152790
   42   0.0017009   0.0090673   0.0013071   0.0257816   0.0530509  -0.0400574
   43  -0.0020451   0.0010014   0.0002774   0.0006011   0.0001004  -0.0001117
   44  -0.0004446  -0.0030913  -0.0008343  -0.0076148  -0.0174652  -0.0008876
   45   0.0000579  -0.0006524   0.0006392  -0.0008242  -0.0029900   0.0002832
   46   0.0012896   0.0142445   0.0036656  -0.0328752   0.0292571   0.0060286
   47  -0.0009369  -0.0277889  -0.0073767  -0.0333933  -0.1434318  -0.0185771
   48  -0.0010471  -0.0087564  -0.0010530  -0.0197723  -0.0573269   0.0386155
   49  -0.0001925   0.0010661   0.0002937   0.0012256   0.0041760  -0.0001709
   50   0.0009111   0.0024887   0.0006461  -0.0024258   0.0257735   0.0025895
   51   0.0001422  -0.0004110   0.0001783  -0.0006913  -0.0014293  -0.0007771
   52  -0.0020177  -0.0036658  -0.0010915  -0.0281254  -0.0493591  -0.0071032
   53  -0.0001838  -0.0013175  -0.0002563   0.0051255   0.0063196   0.0000761
   54   0.0004164   0.0030921   0.0006728   0.0023790   0.0145895   0.0136601
   55  -0.0000203  -0.0001160  -0.0000531   0.0019320  -0.0048171  -0.0011536
   56   0.0006987   0.0015611   0.0006228   0.0036621   0.0080093   0.0006584
   57  -0.0004682  -0.0023714  -0.0005719  -0.0043502  -0.0123811  -0.0007117
   58   0.0001807  -0.0003915   0.0000579  -0.0016798  -0.0008402  -0.0001142
   59  -0.0007810  -0.0032213  -0.0007759  -0.0059919  -0.0168782  -0.0013120
   60   0.0005607   0.0022244   0.0005513   0.0013120   0.0135723   0.0013073
   61  -0.0004013  -0.0038489  -0.0010546   0.0060468  -0.0067549   0.0014781
   62  -0.0001087   0.0027186   0.0004042   0.0082725   0.0095665   0.0021327
   63  -0.0007276  -0.0039129  -0.0009630  -0.0020650  -0.0180245  -0.0120771
   64  -0.0010510  -0.0001152   0.0000996  -0.0032664   0.0032156   0.0010959
   65  -0.0012621  -0.0046690  -0.0008460  -0.0029500  -0.0205598  -0.0042328
   66  -0.0001332  -0.0009609   0.0000032   0.0000297  -0.0055203   0.0076578
   67   0.0005832   0.0019120   0.0004548   0.0065513   0.0235642   0.0041194
   68   0.0003075   0.0010142   0.0002739   0.0093362   0.0082246  -0.0008745
   69   0.0000194   0.0000047  -0.0000488   0.0016762  -0.0019591   0.0072676
   70   0.0008629   0.0022457   0.0004964   0.0048019   0.0123379   0.0012633
   71  -0.0005322  -0.0012341  -0.0002908  -0.0032811  -0.0072628  -0.0006505
   72  -0.0001530  -0.0005186   0.0002149  -0.0013269  -0.0022586  -0.0006072
   73  -0.0003124  -0.0002070   0.0000307   0.0029977  -0.0217116  -0.0043628
   74   0.0003574   0.0023094   0.0006959   0.0113561   0.0140646   0.0013518
   75   0.0000891   0.0004276   0.0001155   0.0018101   0.0035537   0.0039464
   76  -0.0000578  -0.0000615  -0.0000242   0.0003530  -0.0012836  -0.0001431
   77   0.0003504   0.0020764   0.0004473   0.0041471   0.0117915   0.0008589
   78   0.0000613   0.0001431   0.0000653  -0.0000285   0.0011253   0.0000155
   79  -0.0002409  -0.0013706  -0.0002760  -0.0039422  -0.0068270  -0.0003689
   80   0.0001528   0.0009812   0.0002111   0.0023291   0.0048316   0.0003159
   81  -0.0000502  -0.0002953  -0.0000253  -0.0007982  -0.0014555  -0.0001142
   82  -0.0002746  -0.0017110  -0.0003511  -0.0046629  -0.0077944  -0.0003813
   83  -0.0000873  -0.0007822  -0.0001445  -0.0025178  -0.0034252  -0.0001136
   84  -0.0000773  -0.0005095  -0.0000988  -0.0008633  -0.0025283  -0.0002599
   85  -0.0002515  -0.0005868  -0.0001800  -0.0005856  -0.0038144  -0.0002764
   86  -0.0000969  -0.0006873  -0.0001578  -0.0026921  -0.0033657  -0.0000599
   87   0.0002907   0.0019089   0.0004357   0.0044105   0.0090465   0.0006717
   88   0.0001900   0.0014175   0.0003530   0.0032753   0.0054095   0.0001283
   89  -0.0002356  -0.0016120  -0.0002864  -0.0038351  -0.0060928  -0.0002186
   90   0.0002948   0.0014618   0.0002554   0.0033551   0.0077278   0.0004806
   91   0.0007384   0.0001611   0.0001331  -0.0004741  -0.0032430  -0.0002856
   92   0.0005692   0.0017451   0.0005275   0.0024046   0.0096939   0.0007179
   93   0.0000872  -0.0002010  -0.0003964  -0.0014174  -0.0026949  -0.0000542
           25          26          27          28          29          30
    1   0.0100550   0.0062315   0.0003474  -0.0078469   0.0106942  -0.0032287
    2  -0.0079929  -0.0028450   0.0016812   0.0190390  -0.0207373  -0.0019623
    3  -0.0031453   0.0010574  -0.0042872   0.0059997   0.0038288  -0.0243547
    4  -0.0024431  -0.0008082   0.0004725  -0.0060321  -0.0017503  -0.0000965
    5   0.0002520   0.0067202   0.0012870   0.0065436  -0.0127807  -0.0018588
    6   0.0001315   0.0000892  -0.0016703  -0.0015667  -0.0060188   0.0017394
    7  -0.0391063   0.0208071   0.0088528  -0.0632083   0.0132939   0.0050729
    8  -0.0114498  -0.4039937  -0.0810255  -0.0091215   0.0252464   0.0027247
    9   0.0026228  -0.0814796   0.0066194  -0.0000788   0.0027653   0.0042807
   10  -0.0032991   0.0007372   0.0006106   0.0012552   0.0018232   0.0009149
   11  -0.0012479   0.0053913   0.0010170   0.0061941   0.0052411   0.0003935
   12   0.0001724   0.0011959   0.0009112   0.0016238   0.0009767   0.0009318
   13   0.0026447   0.0003181   0.0000001   0.0069855   0.0010483   0.0010766
   14   0.0024205  -0.0011622  -0.0002838  -0.0099897  -0.0027585   0.0005331
   15  -0.0001153  -0.0030438  -0.0013306  -0.0044905  -0.0019122  -0.0013175
   16  -0.0041975   0.0258396   0.0052527  -0.0559586  -0.0365940  -0.0051043
   17   0.0082388  -0.0437548  -0.0110856  -0.0540336   0.0071317   0.0171526
   18   0.0025036  -0.0084042   0.0082984  -0.0110404   0.0241041  -0.0247888
   19   0.0002127   0.0010013   0.0001958  -0.0000267  -0.0002306  -0.0001329
   20  -0.0007302   0.0024727   0.0005305   0.0050564   0.0043685  -0.0011444
   21  -0.0002198   0.0006660   0.0004523   0.0013497   0.0013524   0.0001426
   22   0.0057616  -0.0098515  -0.0036883  -0.2991918  -0.1110802  -0.0015106
   23   0.0299605   0.0350799   0.0068438  -0.0691377  -0.2242788  -0.0193296
   24   0.0046683   0.0039673  -0.0080709   0.0070899  -0.0226639  -0.1129203
   25   0.0318193  -0.0205347  -0.0069537  -0.0004789   0.0004055  -0.0000923
   26  -0.0205347   0.4054370   0.0810008  -0.0049471  -0.0070801   0.0018600
   27  -0.0069537   0.0810008   0.0017641  -0.0008955  -0.0006352  -0.0041487
   28  -0.0004789  -0.0049471  -0.0008955   0.6655744  -0.0036152  -0.0489472
   29   0.0004055  -0.0070801  -0.0006352  -0.0036152   0.7072793   0.1133372
   30  -0.0000923   0.0018600  -0.0041487  -0.0489472   0.1133372   0.1391780
   31   0.0019601  -0.0100784  -0.0021506  -0.2549768   0.1320515   0.0489100
   32  -0.0020468   0.0053639   0.0013062   0.0781165  -0.1595322  -0.0331671
   33  -0.0005441   0.0016382  -0.0002580   0.0368835  -0.0426387  -0.0216989
   34   0.0006519  -0.0011622  -0.0001795   0.0259069   0.0033398   0.0028601
   35   0.0011922  -0.0013277  -0.0004082   0.0500847  -0.0241660  -0.0115197
   36   0.0002146   0.0001809   0.0000478   0.0084234  -0.0051056   0.0109889
   37  -0.0004717  -0.0046854  -0.0009382   0.0106275   0.0255379   0.0065729
   38   0.0008896   0.0047643   0.0007957  -0.0171203   0.0296550  -0.0079364
   39   0.0005772   0.0007862   0.0010409   0.0005823  -0.0141399   0.0612720
   40   0.0010648  -0.0076733  -0.0018716  -0.0044869  -0.0022356   0.0008404
   41   0.0009769  -0.0261203  -0.0047682  -0.0215952  -0.0197704   0.0010079
   42   0.0007767  -0.0103298  -0.0013105  -0.0073427  -0.0060368  -0.0013035
   43  -0.0003043  -0.0004219  -0.0000131  -0.0000913   0.0000606   0.0000489
   44  -0.0001892   0.0025505   0.0005182   0.0004832   0.0016296  -0.0000334
   45  -0.0000202   0.0004604  -0.0000028  -0.0000336   0.0002802  -0.0003520
   46  -0.0002943  -0.0021102  -0.0010366  -0.0009112  -0.0027525  -0.0022855
   47  -0.0027569   0.0293186   0.0060780   0.0222275   0.0167645  -0.0008786
   48  -0.0010508   0.0108941   0.0015004   0.0062947   0.0071098  -0.0022607
   49  -0.0022264  -0.0012101  -0.0003599  -0.0006864  -0.0005576   0.0000513
   50   0.0009143  -0.0043645  -0.0008535  -0.0018625  -0.0030098   0.0001090
   51  -0.0000453   0.0001909   0.0008998   0.0010789   0.0002609   0.0001461
   52  -0.0004130   0.0076662   0.0026653   0.0215320   0.0051002   0.0007900
   53   0.0004847  -0.0007182  -0.0007309  -0.0024561  -0.0010460  -0.0001543
   54   0.0004479  -0.0021921  -0.0006475  -0.0001278  -0.0022983  -0.0019693
   55  -0.0001032   0.0013242   0.0000572  -0.0010878   0.0006696  -0.0001289
   56   0.0001635  -0.0011382  -0.0004326   0.0003794  -0.0010293  -0.0000505
   57  -0.0002473   0.0020616   0.0003922   0.0011904   0.0017723   0.0000011
   58   0.0001240   0.0003493   0.0001254   0.0021973   0.0002862   0.0000053
   59  -0.0002692   0.0032823   0.0007734   0.0023914   0.0023807  -0.0001518
   60   0.0003802  -0.0024999  -0.0005022   0.0001727  -0.0017271  -0.0000114
   61  -0.0000359  -0.0001511  -0.0004037   0.0040281   0.0027643  -0.0002885
   62   0.0004907  -0.0026855  -0.0006588  -0.0018635  -0.0017363   0.0002908
   63  -0.0003204   0.0036546   0.0003431   0.0004825   0.0027841  -0.0011956
   64  -0.0003099   0.0004477   0.0000784  -0.0015940   0.0000798  -0.0000424
   65  -0.0000738   0.0023436   0.0004876  -0.0017286   0.0037838   0.0002815
   66   0.0000141   0.0003987   0.0000793  -0.0003990   0.0010174  -0.0019113
   67   0.0006538  -0.0024178  -0.0004847  -0.0099857  -0.0231745  -0.0036025
   68   0.0003577  -0.0011236  -0.0002997   0.0166830   0.0059118  -0.0009085
   69   0.0000302  -0.0000630   0.0003021   0.0043112   0.0028325   0.0024991
   70   0.0003527  -0.0018498  -0.0003939   0.0073304  -0.0021216  -0.0004488
   71  -0.0002142   0.0011437   0.0002528  -0.0046275  -0.0055294  -0.0017005
   72  -0.0000921   0.0003833   0.0000220  -0.0010786  -0.0018893   0.0040986
   73  -0.0007903  -0.0003275   0.0000075  -0.0412508  -0.0154438  -0.0009345
   74   0.0007989  -0.0047389  -0.0009435  -0.0055424  -0.3239496  -0.0568790
   75   0.0001954  -0.0008801  -0.0000693   0.0007665  -0.0560787  -0.0271415
   76  -0.0001415   0.0003011   0.0000731   0.0000375   0.0001224   0.0000037
   77   0.0000946  -0.0025586  -0.0004598  -0.0021287  -0.0019477   0.0002700
   78   0.0000235  -0.0001903  -0.0000510   0.0000593  -0.0001278  -0.0000076
   79  -0.0000934   0.0015170   0.0002824   0.0016882   0.0011767  -0.0001564
   80   0.0000675  -0.0009949  -0.0001866  -0.0008936  -0.0008127   0.0000817
   81  -0.0000252   0.0003313   0.0000536   0.0003353   0.0002456  -0.0000265
   82  -0.0001771   0.0015548   0.0002975   0.0016899   0.0013022  -0.0001663
   83  -0.0000094   0.0007835   0.0001450   0.0010214   0.0005952  -0.0000966
   84  -0.0000650   0.0004814   0.0001045   0.0001401   0.0003846   0.0000071
   85  -0.0001893   0.0004642   0.0001461  -0.0002850   0.0004087   0.0000226
   86  -0.0001131   0.0006067   0.0001634   0.0011611   0.0004885  -0.0001031
   87   0.0001507  -0.0015699  -0.0003046  -0.0010921  -0.0012551   0.0001088
   88  -0.0000468  -0.0008932  -0.0002426  -0.0007254  -0.0007820   0.0000332
   89  -0.0001026   0.0008713   0.0001980   0.0008044   0.0007630  -0.0001474
   90   0.0001327  -0.0011420  -0.0002734  -0.0003240  -0.0009316   0.0000171
   91  -0.0001816   0.0005654   0.0001481   0.0000444   0.0002115  -0.0000170
   92   0.0000233  -0.0015222  -0.0003105   0.0004334  -0.0010240  -0.0000166
   93  -0.0001042   0.0004978   0.0000956   0.0005940   0.0004004  -0.0000086
           31          32          33          34          35          36
    1  -0.0091661   0.0024812  -0.0004424  -0.0067793  -0.0011049  -0.0002146
    2   0.0011275   0.0034019  -0.0003467  -0.0051768  -0.0059922  -0.0000836
    3   0.0007937   0.0016537   0.0030357  -0.0021605  -0.0017215  -0.0025010
    4  -0.0003868  -0.0155937  -0.0023307   0.0184783   0.0171232   0.0015657
    5  -0.0018654   0.0042425   0.0005777  -0.0019939  -0.0065231  -0.0017056
    6  -0.0008736   0.0017514  -0.0006754  -0.0031946  -0.0043231   0.0047995
    7   0.0163064  -0.0165695  -0.0039413  -0.0016286   0.0128290   0.0018922
    8  -0.0014012  -0.0041068  -0.0014290   0.0019268   0.0011777   0.0000154
    9  -0.0006276  -0.0004439   0.0046997   0.0008746  -0.0007694  -0.0005222
   10   0.0007358  -0.0026503  -0.0005150   0.0016292   0.0006855   0.0000067
   11   0.0011948  -0.0012024  -0.0000293   0.0016742   0.0005024  -0.0001691
   12   0.0000992  -0.0004209  -0.0005483   0.0005838   0.0000429   0.0000056
   13  -0.0019453   0.0041965   0.0009021  -0.0028693  -0.0021395   0.0000591
   14   0.0013883  -0.0027229  -0.0008839   0.0010153   0.0007989   0.0000467
   15   0.0004146  -0.0025989  -0.0004711   0.0025031   0.0029223  -0.0000110
   16   0.0095031   0.0410429   0.0016094  -0.0809028   0.0000486   0.0068518
   17  -0.0097449  -0.0388984  -0.0034897   0.0096510   0.0372308   0.0034261
   18   0.0011078  -0.0027100  -0.0414922   0.0191137   0.0019809   0.0266472
   19   0.0004449  -0.0013459  -0.0001719   0.0030376   0.0023458   0.0000869
   20   0.0012728  -0.0010785   0.0005527   0.0098860   0.0048345  -0.0001265
   21   0.0002023  -0.0004335   0.0002225   0.0022341   0.0013265  -0.0004534
   22  -0.0703849   0.0105316   0.0150898  -0.0063126  -0.0440295  -0.0126045
   23   0.0109728   0.0426089   0.0037697  -0.0057068  -0.0470325  -0.0000978
   24   0.0043543  -0.0004485   0.0343815  -0.0136596   0.0049413  -0.0490289
   25   0.0019601  -0.0020468  -0.0005441   0.0006519   0.0011922   0.0002146
   26  -0.0100784   0.0053639   0.0016382  -0.0011622  -0.0013277   0.0001809
   27  -0.0021506   0.0013062  -0.0002580  -0.0001795  -0.0004082   0.0000478
   28  -0.2549768   0.0781165   0.0368835   0.0259069   0.0500847   0.0084234
   29   0.1320515  -0.1595322  -0.0426387   0.0033398  -0.0241660  -0.0051056
   30   0.0489100  -0.0331671  -0.0216989   0.0028601  -0.0115197   0.0109889
   31   0.6580546   0.0321828  -0.0491420  -0.0883872  -0.0403483   0.0000435
   32   0.0321828   0.5532773   0.0944643   0.0223017  -0.2680812  -0.0496222
   33  -0.0491420   0.0944643   0.0623552   0.0079342  -0.0443618  -0.0340833
   34  -0.0883872   0.0223017   0.0079342   0.6559340  -0.0197957  -0.0577972
   35  -0.0403483  -0.2680812  -0.0443618  -0.0197957   0.5551492   0.0995389
   36   0.0000435  -0.0496222  -0.0340833  -0.0577972   0.0995389   0.0595960
   37   0.0141098  -0.0533187  -0.0093283  -0.2679562  -0.0828649   0.0096963
   38  -0.0019325  -0.0321864  -0.0019839  -0.1372881  -0.1360257  -0.0173560
   39  -0.0049995  -0.0010049   0.0029133  -0.0015390  -0.0172057  -0.0003389
   40  -0.0018717   0.0031065   0.0008310  -0.0006304   0.0022179   0.0006281
   41  -0.0091286   0.0006699  -0.0009982  -0.0104587  -0.0027179   0.0012248
   42  -0.0026932   0.0007326  -0.0008438  -0.0026003   0.0000009   0.0010899
   43  -0.0002342   0.0002479   0.0000274  -0.0003884  -0.0003661   0.0000037
   44   0.0013535  -0.0003885   0.0000873   0.0020835   0.0007799  -0.0001447
   45   0.0003309  -0.0001081   0.0001268   0.0003055   0.0001877  -0.0001507
   46  -0.0038462  -0.0031398  -0.0011267   0.0000358  -0.0026109  -0.0003185
   47   0.0135618  -0.0036808   0.0000673   0.0092275   0.0036298  -0.0009414
   48   0.0034081  -0.0007635   0.0007464   0.0018091  -0.0004162  -0.0014729
   49  -0.0004381   0.0003636   0.0000110  -0.0004626  -0.0001538   0.0001079
   50  -0.0024673   0.0003618   0.0001308  -0.0001925   0.0004927   0.0002768
   51  -0.0003614   0.0008503   0.0001282  -0.0006316  -0.0007949  -0.0000448
   52   0.0031749  -0.0002422   0.0000265   0.0011974   0.0001356  -0.0000709
   53   0.0000537  -0.0003871  -0.0000369   0.0011214   0.0007147  -0.0000465
   54  -0.0001929  -0.0012511   0.0001256  -0.0002924   0.0014461  -0.0000251
   55   0.0015566  -0.0018362  -0.0004132   0.0008946   0.0010903  -0.0000142
   56  -0.0005581  -0.0001344  -0.0001363  -0.0007951  -0.0005038   0.0000311
   57   0.0005668   0.0003038   0.0000764   0.0005919  -0.0004049  -0.0000859
   58  -0.0007072   0.0009735   0.0001873  -0.0008177  -0.0008949  -0.0000374
   59   0.0004191   0.0014553   0.0005028  -0.0000114  -0.0010473  -0.0003456
   60  -0.0016928   0.0008269   0.0000919  -0.0013170  -0.0006125   0.0001324
   61  -0.0004127   0.0001511   0.0002257   0.0019084   0.0008867  -0.0001556
   62  -0.0002275  -0.0013688  -0.0004046   0.0003690   0.0007880   0.0001734
   63   0.0018049  -0.0004267  -0.0000321   0.0017047   0.0003252   0.0000573
   64  -0.0049657  -0.0021989   0.0007034   0.0041947  -0.0244871  -0.0048105
   65  -0.0021787   0.0006201  -0.0000866   0.0184883   0.0051317   0.0002421
   66   0.0006531  -0.0009779   0.0073744   0.0030026   0.0029541   0.0010306
   67  -0.2758174  -0.1140337   0.0010206   0.0011529   0.0084814   0.0017985
   68  -0.1209886  -0.0996981  -0.0053043  -0.0269241  -0.0041899   0.0014944
   69  -0.0003474  -0.0060924  -0.0172522  -0.0051930  -0.0017601   0.0013002
   70   0.0028377  -0.0093925  -0.0024619  -0.2526174   0.1212167   0.0436714
   71   0.0262971  -0.0051841  -0.0030651   0.1276192  -0.1129938  -0.0297058
   72   0.0049360  -0.0004216   0.0004514   0.0451716  -0.0292384  -0.0240006
   73   0.0047348   0.0248836   0.0043090  -0.0045517   0.0022517   0.0014613
   74  -0.0181908   0.0048440   0.0029834   0.0022161   0.0000612  -0.0014219
   75  -0.0035132  -0.0016275   0.0005972   0.0014267  -0.0013887   0.0069486
   76   0.0002036  -0.0000943  -0.0000150   0.0000729   0.0000543  -0.0000011
   77  -0.0002009  -0.0012866  -0.0003630   0.0006964   0.0016331   0.0003463
   78  -0.0001366   0.0000979   0.0000113  -0.0000933  -0.0000606   0.0000007
   79  -0.0002331   0.0012566   0.0003548  -0.0005763  -0.0012884  -0.0002343
   80  -0.0000056  -0.0006058  -0.0001823   0.0001936   0.0006518   0.0001451
   81  -0.0000338   0.0002431   0.0000654  -0.0001104  -0.0002525  -0.0000499
   82  -0.0002478   0.0012953   0.0004099  -0.0003274  -0.0011478  -0.0002414
   83  -0.0002368   0.0007826   0.0002384  -0.0002754  -0.0006898  -0.0001259
   84   0.0001837   0.0000347   0.0000392   0.0001668  -0.0000285  -0.0000578
   85   0.0004707  -0.0003468  -0.0000535   0.0005497   0.0003744  -0.0000018
   86  -0.0005081   0.0009912   0.0002707  -0.0004802  -0.0008756  -0.0000863
   87  -0.0002427  -0.0004693  -0.0002371  -0.0004663   0.0002684   0.0001143
   88  -0.0001514  -0.0003218  -0.0001028  -0.0006530  -0.0000626  -0.0000030
   89  -0.0001685   0.0006663   0.0002703   0.0004251  -0.0001040  -0.0000874
   90  -0.0005536   0.0001964  -0.0000286  -0.0008812  -0.0003024   0.0000619
   91   0.0000666  -0.0000198   0.0000468   0.0002379   0.0002777   0.0000521
   92  -0.0015908   0.0012206   0.0002044  -0.0020324  -0.0012694   0.0000034
   93  -0.0002241   0.0005164   0.0001865  -0.0001843  -0.0003482   0.0000069
           37          38          39          40          41          42
    1  -0.0144031  -0.0060547  -0.0102591   0.0495908  -0.0108338   0.0134320
    2  -0.0137889  -0.0313125   0.0045304  -0.0095707   0.0624106   0.0011977
    3  -0.0010298  -0.0022393  -0.0344777  -0.0021867   0.0372874   0.0655599
    4  -0.0670201  -0.0066938   0.0042230  -0.0085989  -0.0243162  -0.0052947
    5   0.0185764   0.0250460   0.0066001   0.0106047   0.0359994   0.0067213
    6   0.0052918   0.0080156   0.0076959   0.0187896  -0.0088094   0.0030163
    7  -0.0007384  -0.0010177   0.0004106  -0.0176011  -0.0268625  -0.0083465
    8  -0.0042972  -0.0121559  -0.0041167  -0.0192532  -0.0296582  -0.0033508
    9  -0.0027521  -0.0021127   0.0010186   0.0007404  -0.0003847  -0.0002703
   10   0.0042879  -0.0032666   0.0005571  -0.4167440   0.1277789  -0.0284024
   11   0.0032838  -0.0068646   0.0002678   0.1982281  -0.1546653  -0.0238902
   12   0.0013518  -0.0007507  -0.0027861  -0.0194757  -0.0246573  -0.0141871
   13   0.0033611  -0.0019325   0.0006698   0.0214565   0.0139526   0.0139508
   14  -0.0057732   0.0054489   0.0003640  -0.0242608  -0.0214030   0.0004445
   15  -0.0049234   0.0021811   0.0018393  -0.0046273  -0.0224512   0.0170810
   16  -0.2869833   0.1132093   0.0491361  -0.0109398   0.0339775   0.0005068
   17   0.0881204  -0.2375023  -0.0406565  -0.0205789  -0.1299102  -0.0494453
   18   0.0336457  -0.0507880  -0.1176316  -0.0097424  -0.0218961   0.0485790
   19  -0.0003317   0.0002769  -0.0002139   0.0013583   0.0032131   0.0017009
   20   0.0036163  -0.0082594  -0.0038945  -0.0061787   0.0305012   0.0090673
   21  -0.0009133  -0.0007820  -0.0067935  -0.0017284   0.0078944   0.0013071
   22  -0.0793805   0.0276619   0.0056677   0.0299289   0.0404908   0.0257816
   23   0.0448027  -0.0174314   0.0096654   0.0271813   0.1423349   0.0530509
   24   0.0122426   0.0164041  -0.0608815   0.0033672   0.0152790  -0.0400574
   25  -0.0004717   0.0008896   0.0005772   0.0010648   0.0009769   0.0007767
   26  -0.0046854   0.0047643   0.0007862  -0.0076733  -0.0261203  -0.0103298
   27  -0.0009382   0.0007957   0.0010409  -0.0018716  -0.0047682  -0.0013105
   28   0.0106275  -0.0171203   0.0005823  -0.0044869  -0.0215952  -0.0073427
   29   0.0255379   0.0296550  -0.0141399  -0.0022356  -0.0197704  -0.0060368
   30   0.0065729  -0.0079364   0.0612720   0.0008404   0.0010079  -0.0013035
   31   0.0141098  -0.0019325  -0.0049995  -0.0018717  -0.0091286  -0.0026932
   32  -0.0533187  -0.0321864  -0.0010049   0.0031065   0.0006699   0.0007326
   33  -0.0093283  -0.0019839   0.0029133   0.0008310  -0.0009982  -0.0008438
   34  -0.2679562  -0.1372881  -0.0015390  -0.0006304  -0.0104587  -0.0026003
   35  -0.0828649  -0.1360257  -0.0172057   0.0022179  -0.0027179   0.0000009
   36   0.0096963  -0.0173560  -0.0003389   0.0006281   0.0012248   0.0010899
   37   0.7018777   0.0297558  -0.0464788  -0.0387753  -0.0000702  -0.0004032
   38   0.0297558   0.7360263   0.1155164   0.0136657   0.0319498   0.0062256
   39  -0.0464788   0.1155164   0.1746103   0.0024610   0.0013300   0.0135378
   40  -0.0387753   0.0136657   0.0024610   1.5230472   0.1032820   0.1463263
   41  -0.0000702   0.0319498   0.0013300   0.1032820   1.1842556   0.0516692
   42  -0.0004032   0.0062256   0.0135378   0.1463263   0.0516692   0.8475314
   43   0.0006086   0.0004468  -0.0001028   0.0024080   0.0366009   0.0067704
   44   0.0004690  -0.0024100  -0.0005853  -0.0021073   0.0388072   0.0159451
   45  -0.0000050  -0.0004733   0.0000903   0.0001377   0.0112978   0.0044648
   46   0.0412284  -0.0047821  -0.0041075  -0.4910621  -0.1356104  -0.1432970
   47  -0.0076322  -0.0344358   0.0010531   0.0953634  -0.4474123   0.0839529
   48  -0.0008188  -0.0063131  -0.0180944  -0.0767336   0.0317106  -0.4079423
   49  -0.0006108   0.0006078  -0.0001569  -0.0053836  -0.0133213  -0.0038856
   50  -0.0012802   0.0025596   0.0000045  -0.0191676  -0.0371505  -0.0214035
   51   0.0011856  -0.0002298  -0.0004922  -0.0014981   0.0049836   0.0150402
   52   0.0199026  -0.0118544  -0.0012568  -0.2704894  -0.0111178   0.0344044
   53  -0.0089642  -0.0004654   0.0006073  -0.1670978  -0.3513051  -0.0826762
   54  -0.0027032   0.0023513  -0.0027278  -0.0000250  -0.0741067  -0.4262008
   55  -0.0001374  -0.0005923   0.0005500  -0.0515114  -0.0218932   0.0054560
   56   0.0004264   0.0012631   0.0002107  -0.0486144  -0.0802975  -0.0290477
   57   0.0010951  -0.0017732  -0.0004909  -0.0137088   0.0221627  -0.0539979
   58   0.0018542  -0.0002412  -0.0002111   0.0397807   0.0297658   0.0200375
   59   0.0017282  -0.0029374  -0.0006688  -0.0224299   0.0317835   0.0300577
   60   0.0001353   0.0017478   0.0000678   0.0127114  -0.0209525   0.0042805
   61  -0.0027535  -0.0039377  -0.0012998  -0.3398103  -0.0971459  -0.0640355
   62  -0.0004930   0.0034536   0.0004264  -0.1020686  -0.2609346  -0.0403965
   63   0.0016902  -0.0025280   0.0009282  -0.0679286   0.0112251  -0.0761274
[...]
 H          0.078 -0.002  0.020    0.326 -0.011  0.074   -0.044  0.004 -0.011
 H         -0.038 -0.058 -0.015   -0.300 -0.309 -0.119   -0.008 -0.004 -0.003
 H         -0.007 -0.020 -0.006   -0.217  0.113 -0.104   -0.006  0.005 -0.002
 H         -0.016  0.008  0.001   -0.229 -0.005 -0.031   -0.011  0.001 -0.001
 O         -0.000 -0.000 -0.000   -0.012  0.007 -0.012   -0.001 -0.001 -0.002
 O         -0.000  0.002 -0.000   -0.001 -0.001  0.005    0.000  0.001  0.000
 TransDip   0.114 -0.166  0.004    0.225  0.257  0.109   -0.106  0.055 -0.042

 Mode:                73                     74                     75
 Frequency:      1542.32                1558.96                1626.26
 Force Cnst:      7.3756                 7.2980                 7.7767
 Red. Mass:       5.2626                 5.0966                 4.9907
 IR Active:          YES                    YES                    YES
 IR Intens:      232.487                 96.301                197.611
 Raman Active:       YES                    YES                    YES
               X      Y      Z        X      Y      Z        X      Y      Z
 Ni         0.001  0.001 -0.000    0.001  0.001 -0.000    0.000 -0.000 -0.001
 N         -0.028 -0.006  0.004   -0.016  0.013  0.007   -0.015  0.009  0.002
 N         -0.011 -0.014 -0.001    0.004  0.000  0.001    0.002 -0.003 -0.001
 N         -0.251  0.086 -0.006   -0.198  0.070 -0.004   -0.057  0.052  0.008
 N         -0.031 -0.019 -0.006   -0.011 -0.009 -0.000   -0.089 -0.006 -0.013
 C         -0.009  0.005  0.002    0.125 -0.039 -0.022    0.023 -0.029 -0.006
 H         -0.006  0.009 -0.002    0.110 -0.016 -0.014    0.072 -0.001 -0.005
 C          0.048  0.035  0.001   -0.134 -0.011  0.009   -0.012  0.018  0.004
 H          0.139  0.004 -0.014   -0.034 -0.020 -0.004    0.008 -0.007 -0.009
 C         -0.186  0.032  0.021    0.249 -0.039 -0.028    0.005 -0.005 -0.002
 C          0.144 -0.065 -0.024   -0.159  0.090  0.030   -0.001  0.008  0.001
 C         -0.161 -0.090 -0.002    0.157  0.070 -0.002   -0.001 -0.010 -0.002
 C          0.190  0.040 -0.012   -0.228 -0.019  0.020   -0.013  0.010  0.004
 C          0.313 -0.077  0.020    0.270 -0.062  0.018    0.037 -0.065 -0.023
 H          0.286  0.117  0.023    0.200  0.092  0.014   -0.100  0.054  0.009
 C          0.102 -0.034  0.010    0.033 -0.035 -0.002    0.313 -0.081  0.058
 H         -0.010 -0.021 -0.027    0.000 -0.014 -0.017    0.164 -0.052 -0.026
 C         -0.049  0.010 -0.011   -0.017  0.009 -0.001   -0.263  0.132 -0.038
 C          0.030  0.132  0.017    0.014  0.087  0.009   -0.014 -0.266 -0.027
 C          0.017 -0.136  0.003    0.015 -0.097  0.004   -0.027  0.256  0.010
 C         -0.081  0.006 -0.024   -0.067  0.006 -0.022    0.020 -0.054 -0.006
 H         -0.310  0.089  0.047    0.372 -0.060 -0.048    0.008  0.013  0.003
 H         -0.030  0.315  0.062    0.035 -0.323 -0.064    0.009 -0.011 -0.003
 H          0.094  0.356  0.059   -0.061 -0.308 -0.053    0.013  0.017  0.003
 H          0.305  0.044 -0.016   -0.423 -0.042  0.026   -0.015 -0.006 -0.001
 H         -0.082  0.022 -0.015   -0.105  0.012 -0.023    0.500  0.197  0.130
 H         -0.144 -0.076 -0.051   -0.092 -0.034 -0.031    0.353  0.242  0.113
 H         -0.133  0.087 -0.027   -0.096  0.066 -0.016    0.243 -0.147  0.064
 H         -0.043  0.026 -0.013   -0.024  0.014 -0.014    0.053  0.007  0.023
 O          0.006 -0.003  0.009    0.005 -0.002  0.008    0.003  0.001  0.005
 O         -0.004  0.004 -0.004   -0.002  0.002 -0.003    0.001 -0.001  0.001
 TransDip   0.479 -0.077  0.058    0.275  0.135  0.070    0.443  0.056  0.060

 Mode:                76                     77                     78
 Frequency:      2829.58                3087.65                3112.48
 Force Cnst:      5.0696                 6.3410                 6.3661
 Red. Mass:       1.0747                 1.1289                 1.1153
 IR Active:          YES                    YES                    YES
 IR Intens:       67.774                 45.073                235.735
 Raman Active:       YES                    YES                    YES
               X      Y      Z        X      Y      Z        X      Y      Z
 Ni         0.000 -0.000  0.000   -0.000 -0.000  0.000   -0.000 -0.000 -0.000
 N         -0.001  0.001  0.000   -0.000  0.004  0.001    0.001  0.000 -0.000
 N         -0.001 -0.001 -0.000   -0.001 -0.005 -0.001    0.001 -0.000  0.000
 N         -0.002  0.003  0.001    0.000  0.010  0.002   -0.000 -0.003 -0.001
 N          0.000 -0.002 -0.000    0.000 -0.004 -0.000   -0.001  0.002  0.000
 C          0.001 -0.003 -0.001    0.005 -0.010 -0.002    0.001 -0.002 -0.001
 H         -0.000 -0.012 -0.003   -0.004 -0.044 -0.010   -0.000 -0.003 -0.001
 C          0.002  0.004  0.000    0.006  0.010  0.001    0.001  0.002  0.001
 H          0.001  0.010  0.002    0.000  0.045  0.009   -0.000  0.001  0.000
 C         -0.000 -0.003 -0.000    0.002 -0.046 -0.009    0.002 -0.026 -0.005
 C         -0.002 -0.001 -0.000   -0.037 -0.016  0.000   -0.022 -0.009  0.000
 C         -0.002  0.001  0.000   -0.034  0.017  0.006   -0.021  0.010  0.003
 C         -0.000  0.003  0.001    0.006  0.044  0.008    0.005  0.028  0.005
 C          0.004 -0.004 -0.005   -0.000 -0.007 -0.002    0.001  0.000 -0.001
 H          0.004 -0.020 -0.007    0.002 -0.113 -0.018   -0.004  0.036  0.006
 C         -0.003  0.008  0.004   -0.006  0.011  0.001    0.006 -0.006  0.002
 H          0.001  0.013 -0.001    0.003  0.044 -0.003   -0.003 -0.014  0.000
 C          0.002 -0.006 -0.003    0.001 -0.031 -0.002    0.001  0.031  0.001
 C          0.003 -0.005  0.001    0.029 -0.023  0.005   -0.057  0.044 -0.009
 C          0.003  0.007  0.000    0.019  0.018  0.006   -0.019 -0.020 -0.008
 C          0.015  0.038 -0.063   -0.001 -0.003  0.004    0.001  0.002 -0.000
 H         -0.001 -0.017 -0.003   -0.023 -0.432 -0.079   -0.015 -0.291 -0.053
 H          0.012  0.006  0.000    0.340  0.175  0.004    0.213  0.110  0.002
 H          0.012 -0.007 -0.003    0.313 -0.189 -0.063    0.190 -0.115 -0.039
 H          0.000  0.015  0.003    0.020  0.446  0.082    0.012  0.270  0.049
 H          0.001  0.025  0.002   -0.001  0.294  0.018    0.000 -0.285 -0.017
 H         -0.025  0.020 -0.006   -0.296  0.203 -0.057    0.614 -0.423  0.118
 H         -0.041 -0.018 -0.010   -0.214 -0.113 -0.061    0.218  0.115  0.063
 H         -0.205 -0.469  0.852    0.016  0.032 -0.061   -0.007 -0.017  0.029
 O         -0.000 -0.001 -0.005   -0.000  0.000 -0.000    0.000 -0.000 -0.000
 O          0.000 -0.001  0.001    0.000 -0.000  0.000   -0.000  0.000 -0.000
 TransDip   0.114 -0.070 -0.227   -0.135 -0.167  0.015   -0.461  0.170 -0.013

 Mode:                79                     80                     81
 Frequency:      3126.48                3131.51                3133.75
 Force Cnst:      6.3300                 6.3352                 6.3333
 Red. Mass:       1.0991                 1.0965                 1.0946
 IR Active:          YES                    YES                    YES
 IR Intens:       32.731                 17.388                 18.562
 Raman Active:       YES                    YES                    YES
               X      Y      Z        X      Y      Z        X      Y      Z
 Ni         0.000  0.000 -0.000    0.000 -0.000  0.000    0.000  0.000  0.000
 N         -0.000 -0.001 -0.000   -0.000 -0.000 -0.000   -0.001  0.001  0.000
 N          0.000 -0.001 -0.000   -0.000  0.000  0.000   -0.000 -0.001 -0.000
 N          0.000 -0.001 -0.000    0.000  0.000  0.000    0.000  0.003  0.001
 N         -0.000 -0.000 -0.000   -0.000 -0.000  0.000    0.000 -0.002 -0.000
 C         -0.002  0.002  0.001   -0.001 -0.000  0.000    0.000 -0.000  0.000
 H          0.002  0.015  0.004    0.002  0.007  0.002   -0.001 -0.006 -0.001
 C          0.002  0.001  0.000    0.000  0.001  0.000   -0.000  0.000 -0.000
 H         -0.001  0.016  0.003    0.002 -0.005 -0.001   -0.000  0.007  0.002
 C         -0.001 -0.064 -0.012    0.004  0.034  0.006   -0.001  0.008  0.002
 C          0.009  0.011  0.002   -0.046 -0.028 -0.001    0.009  0.004 -0.000
 C         -0.003  0.008  0.002   -0.035  0.027  0.008    0.009 -0.005 -0.002
 C         -0.005 -0.060 -0.011    0.000 -0.043 -0.008   -0.001 -0.003 -0.001
 C         -0.001  0.000 -0.000    0.000  0.000  0.000    0.000 -0.003  0.000
 H         -0.000  0.008  0.001   -0.000  0.000 -0.000    0.002 -0.040 -0.007
 C          0.000  0.000  0.000   -0.000  0.000 -0.000   -0.005  0.004 -0.000
 H          0.001  0.005 -0.000   -0.000  0.001 -0.000    0.004  0.018 -0.000
 C          0.000 -0.003 -0.000    0.000 -0.004 -0.000    0.003 -0.066 -0.004
 C         -0.002  0.002 -0.000   -0.003  0.002 -0.001   -0.035  0.027 -0.006
 C         -0.001 -0.001 -0.001    0.002  0.001  0.001    0.029  0.015  0.008
 C         -0.000  0.000 -0.000   -0.000  0.000  0.000   -0.000  0.000  0.001
 H          0.030  0.653  0.119    0.020  0.494  0.090    0.002  0.031  0.005
 H         -0.156 -0.083 -0.002    0.517  0.267  0.006   -0.087 -0.045 -0.001
 H          0.099 -0.062 -0.021    0.402 -0.244 -0.082   -0.092  0.056  0.019
 H          0.035  0.696  0.127   -0.023 -0.403 -0.073   -0.004 -0.082 -0.015
 H         -0.000  0.035  0.002   -0.001  0.041  0.002   -0.009  0.729  0.044
 H          0.025 -0.017  0.005    0.032 -0.022  0.006    0.427 -0.295  0.082
 H          0.016  0.008  0.005   -0.022 -0.011 -0.006   -0.333 -0.174 -0.095
 H         -0.001 -0.001  0.002    0.000  0.000 -0.001    0.004  0.009 -0.017
 O          0.000 -0.000  0.000   -0.000 -0.000 -0.000   -0.000  0.000 -0.000
 O         -0.000  0.000  0.000   -0.000 -0.000 -0.000   -0.000 -0.000  0.000
 TransDip  -0.007 -0.180 -0.036   -0.131 -0.023  0.010   -0.100 -0.088 -0.036

 Mode:                82                     83                     84
 Frequency:      3137.95                3143.20                3212.50
 Force Cnst:      6.3733                 6.4045                 6.5948
 Red. Mass:       1.0986                 1.1002                 1.0846
 IR Active:          YES                    YES                    YES
 IR Intens:       24.454                 13.238                611.040
 Raman Active:       YES                    YES                    YES
               X      Y      Z        X      Y      Z        X      Y      Z
 Ni         0.000 -0.000  0.000   -0.000  0.000  0.000   -0.000  0.000 -0.000
 N         -0.000  0.001  0.000   -0.000 -0.000  0.000   -0.001 -0.002 -0.000
 N          0.000  0.000  0.000    0.000 -0.000  0.000    0.000  0.001  0.000
 N         -0.000  0.001  0.000    0.000 -0.002 -0.000    0.003 -0.074 -0.013
 N          0.000  0.000  0.000    0.000 -0.001  0.000    0.000  0.001  0.000
 C          0.003 -0.003 -0.001    0.000 -0.000 -0.000    0.001  0.002  0.000
 H          0.000 -0.004 -0.001    0.000  0.002  0.000    0.002  0.020  0.005
 C         -0.003 -0.002 -0.000   -0.000 -0.000  0.000   -0.001 -0.002  0.000
 H         -0.000 -0.004 -0.001   -0.000  0.001  0.000    0.000 -0.011 -0.002
 C         -0.000  0.019  0.004    0.000  0.002  0.000    0.000 -0.003 -0.000
 C          0.053  0.021 -0.001    0.001  0.000  0.000   -0.002 -0.001  0.000
 C         -0.059  0.029  0.011   -0.004  0.002  0.001   -0.002  0.002  0.001
 C          0.003  0.013  0.002    0.000  0.004  0.001    0.000  0.004  0.001
 C          0.000 -0.000  0.000    0.002  0.001 -0.000   -0.003  0.007  0.003
 H          0.000 -0.006 -0.001   -0.000  0.019  0.003   -0.030  0.974  0.159
 C          0.000 -0.000  0.000   -0.004  0.004 -0.002    0.001 -0.003 -0.003
 H         -0.000 -0.001  0.000    0.001  0.008 -0.001    0.001 -0.002 -0.000
 C         -0.000  0.002  0.000    0.003 -0.049 -0.002   -0.001 -0.006  0.000
 C         -0.001  0.000 -0.000    0.010  0.004  0.004    0.004 -0.003  0.000
 C          0.003  0.002  0.001   -0.063 -0.037 -0.020    0.005  0.003  0.002
 C         -0.000 -0.000  0.000    0.000 -0.001  0.000   -0.001  0.000 -0.001
 H         -0.005 -0.099 -0.018   -0.002 -0.037 -0.007   -0.002 -0.046 -0.008
 H         -0.568 -0.288 -0.005   -0.012 -0.006  0.000    0.027  0.014  0.000
 H          0.624 -0.372 -0.126    0.040 -0.024 -0.008    0.030 -0.018 -0.006
 H         -0.009 -0.166 -0.030   -0.001 -0.019 -0.003    0.002  0.034  0.006
 H          0.000 -0.022 -0.001   -0.008  0.521  0.031   -0.001  0.066  0.005
 H          0.008 -0.006  0.002   -0.091  0.058 -0.017   -0.039  0.026 -0.007
 H         -0.038 -0.020 -0.011    0.721  0.374  0.205   -0.064 -0.033 -0.018
 H          0.001  0.001 -0.002   -0.005 -0.012  0.020   -0.003 -0.009  0.012
 O         -0.000  0.000 -0.000    0.000 -0.000  0.000    0.001 -0.001  0.000
 O          0.000 -0.000 -0.000   -0.000  0.000 -0.000    0.001  0.000  0.000
 TransDip  -0.002  0.155  0.030   -0.064 -0.092 -0.030    0.287  0.724  0.141

 Mode:                85                     86                     87
 Frequency:      3469.11                3485.24                3497.60
 Force Cnst:      7.6851                 7.7210                 7.7753
 Red. Mass:       1.0838                 1.0788                 1.0788
 IR Active:          YES                    YES                    YES
 IR Intens:       26.929                 66.307                 34.943
 Raman Active:       YES                    YES                    YES
               X      Y      Z        X      Y      Z        X      Y      Z
 Ni         0.000  0.000  0.000   -0.000  0.000  0.000    0.000 -0.000 -0.000
 N          0.004  0.027  0.005   -0.011 -0.066 -0.014    0.001  0.008  0.002
 N          0.003 -0.038 -0.007    0.002 -0.020 -0.004    0.004 -0.059 -0.011
 N         -0.000 -0.000  0.000    0.000  0.001  0.000    0.000 -0.001 -0.000
 N         -0.009 -0.057  0.000   -0.003 -0.017  0.000    0.007  0.041 -0.001
 C          0.001 -0.008 -0.001    0.006  0.003 -0.001    0.002 -0.004 -0.000
 H         -0.046 -0.341 -0.075    0.126  0.894  0.198   -0.013 -0.099 -0.022
 C         -0.001  0.008  0.000   -0.005 -0.003  0.001   -0.002  0.004  0.000
 H         -0.020  0.498  0.097   -0.014  0.283  0.055   -0.037  0.790  0.153
 C         -0.000  0.001  0.001    0.001  0.000 -0.000   -0.000  0.000  0.000
 C          0.000  0.002  0.000   -0.001 -0.000  0.000   -0.001  0.001  0.000
 C          0.001 -0.001 -0.000    0.001  0.001  0.000    0.000 -0.001 -0.000
 C         -0.001 -0.001  0.000   -0.001  0.001 -0.000   -0.000  0.000  0.000
 C         -0.001 -0.006 -0.004   -0.001  0.002 -0.000    0.001 -0.001  0.001
 H         -0.003  0.029  0.005    0.002 -0.019 -0.003   -0.001  0.011  0.002
 C          0.001  0.006  0.004    0.002 -0.001  0.001   -0.001  0.001 -0.001
 H          0.109  0.769 -0.034    0.035  0.232 -0.011   -0.085 -0.571  0.025
 C          0.002  0.002 -0.000    0.000 -0.000  0.000   -0.000  0.001 -0.000
 C         -0.001  0.001  0.000    0.000  0.000 -0.000   -0.000 -0.000  0.000
 C         -0.001 -0.000 -0.001    0.000  0.000  0.000   -0.000 -0.000 -0.000
 C         -0.000 -0.001  0.002   -0.000  0.000 -0.000   -0.000 -0.000  0.000
 H          0.002  0.030  0.006   -0.001 -0.028 -0.005    0.001  0.007  0.001
 H         -0.021 -0.011 -0.000    0.005  0.002 -0.000   -0.006 -0.003 -0.000
 H         -0.019  0.012  0.004    0.007 -0.005 -0.001   -0.005  0.003  0.001
 H         -0.002 -0.039 -0.007   -0.001 -0.002 -0.000   -0.000 -0.020 -0.004
 H          0.000 -0.047 -0.002   -0.000 -0.001 -0.000    0.001  0.004  0.000
 H          0.020 -0.014  0.004   -0.002  0.001 -0.000    0.000 -0.000  0.000
 H          0.022  0.011  0.006   -0.005 -0.003 -0.002    0.002  0.001  0.001
 H          0.003  0.007 -0.014   -0.001 -0.002  0.004    0.001  0.000 -0.001
 O         -0.000  0.000 -0.000    0.000 -0.000  0.000    0.000  0.000  0.000
 O          0.000 -0.000  0.000   -0.000  0.000  0.000    0.000 -0.000 -0.000
 TransDip   0.107  0.126  0.021   -0.099  0.239  0.036    0.181  0.048  0.027

 STANDARD THERMODYNAMIC QUANTITIES AT   298.15 K  AND     1.00 ATM

   This Molecule has  5 Imaginary Frequencies
   Zero point vibrational energy:      138.806 kcal/mol

   Atom    1 Element Ni Has Mass   57.93530
   Atom    2 Element N  Has Mass   14.00307
   Atom    3 Element N  Has Mass   14.00307
   Atom    4 Element N  Has Mass   14.00307
   Atom    5 Element N  Has Mass   14.00307
   Atom    6 Element C  Has Mass   12.00000
   Atom    7 Element H  Has Mass    1.00783
   Atom    8 Element C  Has Mass   12.00000
   Atom    9 Element H  Has Mass    1.00783
   Atom   10 Element C  Has Mass   12.00000
   Atom   11 Element C  Has Mass   12.00000
   Atom   12 Element C  Has Mass   12.00000
   Atom   13 Element C  Has Mass   12.00000
   Atom   14 Element C  Has Mass   12.00000
   Atom   15 Element H  Has Mass    1.00783
   Atom   16 Element C  Has Mass   12.00000
   Atom   17 Element H  Has Mass    1.00783
   Atom   18 Element C  Has Mass   12.00000
   Atom   19 Element C  Has Mass   12.00000
   Atom   20 Element C  Has Mass   12.00000
   Atom   21 Element C  Has Mass   12.00000
   Atom   22 Element H  Has Mass    1.00783
   Atom   23 Element H  Has Mass    1.00783
   Atom   24 Element H  Has Mass    1.00783
   Atom   25 Element H  Has Mass    1.00783
   Atom   26 Element H  Has Mass    1.00783
   Atom   27 Element H  Has Mass    1.00783
   Atom   28 Element H  Has Mass    1.00783
   Atom   29 Element H  Has Mass    1.00783
   Atom   30 Element O  Has Mass   15.99491
   Atom   31 Element O  Has Mass   15.99491
   Molecular Mass:   302.031360 amu
   Principal axes and moments of inertia in amu*Bohr^2:
                             1           2           3
    Eigenvalues --     1990.53920 10460.26851 12301.52172
          X               0.99538    -0.09195    -0.02774
          Y               0.08444     0.97544    -0.20345
          Z               0.04577     0.20017     0.97869
   Rotational Symmetry Number is   1
   The Molecule is an Asymmetric Top
   Translational Enthalpy:        0.889 kcal/mol
   Rotational Enthalpy:           0.889 kcal/mol
   Vibrational Enthalpy:        146.027 kcal/mol
   gas constant (RT):             0.592 kcal/mol
   Translational Entropy:        43.013  cal/mol.K
   Rotational Entropy:           33.904  cal/mol.K
   Vibrational Entropy:          41.587  cal/mol.K

   Total Enthalpy:              148.397 kcal/mol
   Total Entropy:               118.503  cal/mol.K
Archival summary:
1\1\n36\FREQ\ProcedureUnspecified\6-31+G*\i1241212(1-,2)\nricke\SatMar1809:55:452017SatMar1809:55:452017\0\\#,FREQ,ProcedureUnspecified,6-31+G*,\\-1,2\Ni\N,1,1.84472\H,2,1.01779,1,127.094\C,2,1.35262,1,116.066,3,172.558,0\C,4,1.41637,2,128.248,1,-177.368,0\H,5,1.08822,4,119.47,2,1.07399,0\C,5,1.38965,4,119.544,2,-178.667,0\H,7,1.08725,5,119.73,4,179.841,0\C,7,1.41859,5,120.777,4,0.0178641,0\H,9,1.08739,7,119.428,5,179.849,0\C,9,1.38999,7,120.954,5,-0.273432,0\H,11,1.08819,9,120.946,7,-179.745,0\C,11,1.41677,9,119.549,7,-0.100177,0\N,13,1.3515,11,128.402,9,-178.723,0\H,14,1.01735,13,116.776,11,-1.17145,0\N,1,1.8503,2,178.022,3,-87.8554,0\H,16,1.01757,1,125.592,2,-74.8699,0\C,16,1.36216,1,115.065,2,81.3697,0\C,18,1.38254,16,130.986,1,-166.707,0\H,19,1.08743,18,120.206,16,-0.453132,0\C,19,1.44791,18,120.525,16,175.844,0\H,21,1.08847,19,117.158,18,-177.664,0\C,21,1.35683,19,123.609,18,2.07957,0\H,23,1.0865,21,121.749,19,179.357,0\C,18,1.46432,16,110.714,1,10.053,0\N,25,1.29892,18,114.042,16,-6.02409,0\H,26,1.03628,25,111.486,18,-175.692,0\C,23,1.50493,21,121.18,19,4.6496,0\H,28,1.1101,23,107.777,21,105.744,0\O,28,1.41876,23,110.074,21,-136.949,0\O,30,1.48934,28,108.185,23,-165.758,0\\\@

 Total job time:  64022.51s(wall), 64968.60s(cpu) 
 Sat Mar 18 09:55:45 2017

        *************************************************************
        *                                                           *
        *  Thank you very much for using Q-Chem.  Have a nice day.  *
        *                                                           *
        *************************************************************


