n02.ulysses.mit.edu 127.0.1
Q-Chem Developer Version! Running on 127.0.1.*
                  Welcome to Q-Chem
     A Quantum Leap Into The Future Of Chemistry


 Q-Chem 4.4, Q-Chem, Inc., Pleasanton, CA (2016)

 Y. Shao,  Z. Gan,  E. Epifanovsky,  A. T. B. Gilbert,  M. Wormit,  
 J. Kussmann,  A. W. Lange,  A. Behn,  J. Deng,  X. Feng,  D. Ghosh,  
 M. Goldey,  P. R. Horn,  L. D. Jacobson,  I. Kaliman,  F.Rob,  
 R. Z. Khaliullin,  T. Kus,  A. Landau,  J. Liu,  E. I. Proynov,  Y. M. Rhee,  
 R. M. Richard,  M. A. Rohrdanz,  R. P. Steele,  E. J. Sundstrom,  
 H. L. Woodcock III,  P. M. Zimmerman,  D. Zuev,  B. Albrecht,  E. Alguire,  
 B. Austin,  S. A. Baeppler,  G. J. O. Beran,  Y. A. Bernard,  E. Berquist,  
 K. Brandhorst,  K. B. Bravaya,  S. T. Brown,  D. Casanova,  C.-M. Chang,  
 Y. Chen,  S. H. Chien,  K. D. Closser,  M. P. Coons,  D. L. Crittenden,  
 S. Dasgupta,  M. Diedenhofen,  R. A. DiStasio Jr.,  H. Do,  A. D. Dutoi,  
 R. G. Edgar,  P.-T. Fang,  S. Fatehi,  Q. Feng,  L. Fusti-Molnar,  
 A. Ghysels,  A. Golubeva-Zadorozhnaya,  J. Gomes,  A. Gunina,  
 M. W. D. Hanson-Heine,  P. H. P. Harbach,  A. W. Hauser,  E. G. Hohenstein,  
 Z. C. Holden,  K. Hui,  T.-C. Jagau,  H. Ji,  B. Kaduk,  K. Khistyaev,  
 Jaehoon Kim,  Jihan Kim,  R. A. King,  P. Klunzinger,  D. Kosenkov,  
 T. Kowalczyk,  C. M. Krauter,  A. Kunitsa,  K. U. Lao,  A. Laurent,  
 K. V. Lawler,  D. Lefrancois,  S. Lehtola,  S. V. Levchenko,  C. Y. Lin,  
 Y.-S. Lin,  F. Liu,  E. Livshits,  R. C. Lochan,  A. Luenser,  P. Manohar,  
 S. F. Manzer,  S.-P. Mao,  Y. Mao,  N. Mardirossian,  A. V. Marenich,  
 L. A. Martinez-Martinez,  S. A. Maurer,  N. J. Mayhall,  J.-M. Mewes,  
 A. F. Morrison,  K. Nanda,  C. M. Oana,  R. Olivares-Amaya,  D. P. O'Neill,  
 J. A. Parkhill,  T. M. Perrine,  R. Peverati,  P. A. Pieniazek,  F. Plasser,  
 A. Prociuk,  D. R. Rehn,  E. Rosta,  N. J. Russ,  N. Sergueev,  
 S. M. Sharada,  S. Sharma,  D. W. Small,  A. Sodt,  T. Stauch,  T. Stein,  
 D. Stuck,  Y.-C. Su,  A. J. W. Thom,  T. Tsuchimochi,  L. Vogt,  O. Vydrov,  
 T. Wang,  M. A. Watson,  J. Wenzel,  A. White,  C. F. Williams,  
 V. Vanovschi,  S. Yeganeh,  S. R. Yost,  Z.-Q. You,  I. Y. Zhang,  X. Zhang,  
 Y. Zhao,  B. R. Brooks,  G. K. L. Chan,  D. M. Chipman,  C. J. Cramer,  
 W. A. Goddard III,  M. S. Gordon,  W. J. Hehre,  A. Klamt,  
 H. F. Schaefer III,  M. W. Schmidt,  C. D. Sherrill,  D. G. Truhlar,  
 A. Warshel,  X. Xu,  A. Aspuru-Guzik,  R. Baer,  A. T. Bell,  N. A. Besley,  
 J.-D. Chai,  A. Dreuw,  B. D. Dunietz,  T. R. Furlani,  S. R. Gwaltney,  
 C.-P. Hsu,  Y. Jung,  J. Kong,  D. S. Lambrecht,  W. Liang,  C. Ochsenfeld,  
 V. A. Rassolov,  L. V. Slipchenko,  J. E. Subotnik,  T. Van Voorhis,  
 J. M. Herbert,  A. I. Krylov,  P. M. W. Gill,  M. Head-Gordon

 Contributors to earlier versions of Q-Chem not listed above: 
 R. D. Adamson,  J. Baker,  E. F. C. Byrd,  A. K. Chakraborty,  C.-L. Cheng,  
 H. Dachsel,  R. J. Doerksen,  G. Hawkins,  A. Heyden,  S. Hirata,  
 G. Kedziora,  F. J. Keil,  C. Kelley,  P. P. Korambath,  W. Kurlancheek,  
 A. M. Lee,  M. S. Lee,  D. Liotard,  I. Lotan,  P. E. Maslen,  N. Nair,  
 D. Neuhauser,  R. Olson,  B. Peters,  J. Ritchie,  N. E. Schultz,  
 N. Shenvi,  A. C. Simmonett,  K. S. Thanthiriwatte,  Q. Wu,  W. Zhang

 Please cite Q-Chem as follows:
 Y. Shao et al., Mol. Phys. 113, 184-215 (2015)
 DOI: 10.1080/00268976.2014.952696

 Q-Chem 4.4.1 for Intel X86 EM64T Linux

 Parts of Q-Chem use Armadillo 5.200.1 (Boston Tea Smuggler).
 http://arma.sourceforge.net/

 Q-Chem begins on Wed Mar  8 22:48:04 2017  

Host: 
0

     Scratch files written to /scratch/nricke/qchem22441//
Processing $rem in /opt/qchem.20160914/config/preferences.
xc_grid     000075000302
max_scf_cycles  200
geom_opt_max_cycles 200
symmetry    false
sym_ignore  true
Symmetry turned off for PCM calculation

Checking the input file for inconsistencies... 	...done.

--------------------------------------------------------------
User input:
--------------------------------------------------------------
$molecule
-1 2
Ni -0.5465695350 1.5994385350 -0.2089247648
N -1.8727055427 2.8464458669 0.0702377185
N -1.9747099646 0.4272987421 -0.3388563453
N 0.8827476930 2.7719520196 0.0100860920
N 0.7501340409 0.3320418026 -0.3907056028
C -3.1107853054 2.3887151803 0.1192144393
H -1.7425737784 3.8369503502 0.2773036211
C -3.1732173852 0.9477493734 -0.1527696430
H -1.9299384417 -0.5716818699 -0.5390107251
C -4.4440106120 0.2856800021 -0.1742195608
C -5.5692228652 1.0246244873 0.0728544685
C -5.5065865663 2.4410588644 0.3508579937
C -4.3170647331 3.1169375302 0.3783708663
C 2.0533343638 2.2113059456 0.0249405327
H 0.9449820165 3.7925018634 0.1981733101
C 2.0201871718 0.7621324422 -0.1417885037
H 0.6067519332 -0.6755011648 -0.3761954330
C 3.1872992455 0.0506112133 0.0406613931
C 4.4175318167 0.7250944697 0.3950485141
C 4.5057981835 2.0707053346 0.5379589615
C 3.3453840471 2.9706221452 0.2163139321
H -4.2652162743 4.1823918964 0.5843455344
H -6.5429266886 0.5429304489 0.0646640069
H -6.4350426588 2.9723679150 0.5393511445
H -4.4893818359 -0.7800524879 -0.3800345912
H 3.1804411782 -1.0343167375 -0.0292745719
H 5.2963933557 0.1071831746 0.5618814513
H 5.4394920917 2.5549380710 0.8093647956
H 3.5714468532 3.4388801991 -0.7664009683
O 3.2263100269 3.9943772545 1.1826052359
O 2.2909681694 5.0189871326 0.6432266984
$end

$rem
method b3lyp
basis 6-31+g*
thresh 12
mem_total 4096 
mem_static 512
unrestricted true
jobtype opt
geom_opt_tol_gradient 5
geom_opt_tol_displacement 10
geom_opt_tol_energy 5
solvent_method pcm
$end

$pcm
theory cpcm
method swig
solver inversion
heavypoints 194
hpoints 194
radii bondi
vdwscale 1.2
$end

$solvent
dielectric 78.39
$end

$van_der_waals
1
28  1.63
$end
--------------------------------------------------------------
 ----------------------------------------------------------------
             Standard Nuclear Orientation (Angstroms)
    I     Atom           X                Y                Z
 ----------------------------------------------------------------
    1      Ni     -0.5465695350     1.5994385350    -0.2089247648
    2      N      -1.8727055427     2.8464458669     0.0702377185
    3      N      -1.9747099646     0.4272987421    -0.3388563453
    4      N       0.8827476930     2.7719520196     0.0100860920
    5      N       0.7501340409     0.3320418026    -0.3907056028
    6      C      -3.1107853054     2.3887151803     0.1192144393
    7      H      -1.7425737784     3.8369503502     0.2773036211
    8      C      -3.1732173852     0.9477493734    -0.1527696430
    9      H      -1.9299384417    -0.5716818699    -0.5390107251
   10      C      -4.4440106120     0.2856800021    -0.1742195608
   11      C      -5.5692228652     1.0246244873     0.0728544685
   12      C      -5.5065865663     2.4410588644     0.3508579937
   13      C      -4.3170647331     3.1169375302     0.3783708663
   14      C       2.0533343638     2.2113059456     0.0249405327
   15      H       0.9449820165     3.7925018634     0.1981733101
   16      C       2.0201871718     0.7621324422    -0.1417885037
   17      H       0.6067519332    -0.6755011648    -0.3761954330
   18      C       3.1872992455     0.0506112133     0.0406613931
   19      C       4.4175318167     0.7250944697     0.3950485141
   20      C       4.5057981835     2.0707053346     0.5379589615
   21      C       3.3453840471     2.9706221452     0.2163139321
   22      H      -4.2652162743     4.1823918964     0.5843455344
   23      H      -6.5429266886     0.5429304489     0.0646640069
   24      H      -6.4350426588     2.9723679150     0.5393511445
   25      H      -4.4893818359    -0.7800524879    -0.3800345912
   26      H       3.1804411782    -1.0343167375    -0.0292745719
   27      H       5.2963933557     0.1071831746     0.5618814513
   28      H       5.4394920917     2.5549380710     0.8093647956
   29      H       3.5714468532     3.4388801991    -0.7664009683
   30      O       3.2263100269     3.9943772545     1.1826052359
   31      O       2.2909681694     5.0189871326     0.6432266984
 ----------------------------------------------------------------
 Nuclear Repulsion Energy =  1782.9158667977 hartrees
 There are       79 alpha and       78 beta electrons
 Requested basis set is 6-31+G(d)
 There are 122 shells and 402 basis functions

 Total QAlloc Memory Limit   4096 MB
 Mega-Array Size       501 MB
 MEM_STATIC part       512 MB
No default van der Waals radius is available for Z = 28
	Found R = 1.6300 A in the $van_der_waals section
Discretize the solute cavity surface with Lebedev spheres
	Using 194 Lebedev grid points for each H atom
	Using 194 Lebedev grid points for other atoms
	Atomic van der Waals radii will be scaled by 1.20
 Serial switch compute.
 Remove points where switching function is < 1.0e-08
 Keep 2553 surface tesserae and discard 3461 interior tesserae
 Molecular Surface Area = 291.081 Angst**2
 A cutoff of  1.0D-12 yielded   5524 shell pairs
 There are     64190 function pairs (     65198 Cartesian)
 
 -------------------------------------------------------
 OpenMP Integral Computing Module                       
 Release: version 1.0, May 2013, Q-Chem Inc. Pittsburgh 
 -------------------------------------------------------
 Integral Job Info:
 Integral job number is                      11
 Integral operator is                         1
 short-range coefficients                     0
 long-range coefficients              100000000
 Omega coefficients                           0
 if combine SR and LR in K                    0
 Integral screening is                        0
 Integral computing path is                   2
 max size of driver memory is            800000
 size of driver memory is                776718
 size of scratch memory is             15346240
 max col of scratch BK array              10000
 max len of scratch array in speh3          662
 max len of scratch index in speh4           32
 max int batch size is                      520
 min int batch size is                       52
 fixed nKL is                                52
 max L of basis functions is                  3
 order of int derivative is                   0
 number of shells is                        122
 number of basis is                         405
 number of cartesian basis is               405
 number of contracted shell pairs          5524
 number of primitive shell pairs          18109
 maxK2 (contraction) of shell pair           36
 max number of K2 of shell pair               1
 max number of CS2 of shell pair            716
 max number of PS2 of shell pair           4296
 mem total for path MDJ                  150792
 -------------------------------------------------------
 Smallest overlap matrix eigenvalue = 1.14E-06

 Scale SEOQF with 1.000000e-02/1.000000e-01/1.000000e-01

 Standard Electronic Orientation quadrupole field applied
 Nucleus-field energy     =     0.0000000631 hartrees
 Guess from superposition of atomic densities
 Warning:  Energy on first SCF cycle will be non-variational
 An unrestricted hybrid HF-DFT SCF calculation will be
 performed using Pulay DIIS extrapolation
 Polarizable Continuum solvation model will be applied
 Exchange:     0.2000 Hartree-Fock + 0.0800 Slater + 0.7200 B88
 Correlation:  0.1900 VWN1RPA + 0.8100 LYP
 Using Euler-Maclaurin-Lebedev (75,302) quadrature formula
 SCF converges when DIIS error is below 1.0E-08
 using 4 threads for integral computing 
 -------------------------------------------------------
 OpenMP BLAS3 based DFT computing Module                
 Release: version 1.0, May 2013, Q-Chem Inc. Pittsburgh 
 -------------------------------------------------------
 ---------------------------------------
  Cycle       Energy         DIIS Error
 ---------------------------------------
    1   -2346.1948559546      3.68E-02
    2   -2341.8700799482      4.08E-03
    3   -2341.3510077828      7.18E-03
    4   -2341.9893121041      4.68E-03
    5   -2342.1931421905      1.73E-03
    6   -2342.2238790585      4.07E-04
    7   -2342.2266009949      2.15E-04
    8   -2342.2274296383      6.95E-05
    9   -2342.2275891857      3.02E-05
   10   -2342.2276416716      2.03E-05
   11   -2342.2276731317      5.84E-06
   12   -2342.2276780109      4.18E-06
   13   -2342.2276805093      3.36E-06
   14   -2342.2276817060      2.12E-06
   15   -2342.2276825424      1.29E-06
   16   -2342.2276836934      7.06E-07
   17   -2342.2276841224      3.01E-07
   18   -2342.2276842609      1.08E-07
   19   -2342.2276842628      9.46E-08
   20   -2342.2276842838      2.68E-08
   21   -2342.2276842873      2.46E-08
   22   -2342.2276842901      1.24E-08
   23   -2342.2276842917      1.03E-08
   24   -2342.2276842929      6.45E-09 Convergence criterion met
 ---------------------------------------

************** Final PCM Free Energy Summary **************
 G_electrostatic  =      -0.11302663 hartree =     -70.92527972 kcal/mol
 G_cavitation     =       0.00000000 hartree =       0.00000000 kcal/mol
 G_dispersion     =       0.00000000 hartree =       0.00000000 kcal/mol
 G_repulsion      =       0.00000000 hartree =       0.00000000 kcal/mol
 --------------------------------------------------
 Non-electrostatic Free Energy =       0.00000000 hartree =       0.00000000 kcal/mol
 Total                         =      -0.11302663 hartree =     -70.92527972 kcal/mol
 --------------------------------------------------
 SCF Energy (H0 + V/2)                       =   -2342.22768429 
 Solute Internal Energy (H0)                 =   -2342.11465766 
 Total Free Energy (H0 + V/2 + non-elec)     =   -2342.22768429 hartree
                                             = -1469770.05513221 kcal/mol
***********************************************************

 <S^2> = 0.7756
 SCF time:  CPU 1893.80 s  wall 551.24 s
 SCF   energy in the final basis set = -2342.2276842929
 Total energy in the final basis set = -2342.2276842929
 
 --------------------------------------------------------------
 
                    Orbital Energies (a.u.)
 --------------------------------------------------------------
 
 Alpha MOs
 -- Occupied --
******* -35.824 -31.264 -31.257 -31.231 -19.172 -19.102 -14.348
-14.335 -14.334 -14.320 -10.244 -10.242 -10.224 -10.224 -10.222
-10.195 -10.189 -10.188 -10.187 -10.187 -10.186 -10.186  -4.024
 -2.634  -2.618  -2.576  -1.042  -0.943  -0.937  -0.879  -0.871
 -0.833  -0.823  -0.790  -0.736  -0.712  -0.696  -0.690  -0.622
 -0.616  -0.581  -0.575  -0.525  -0.518  -0.505  -0.494  -0.491
 -0.474  -0.465  -0.440  -0.436  -0.433  -0.423  -0.412  -0.410
 -0.401  -0.391  -0.388  -0.370  -0.360  -0.347  -0.341  -0.333
 -0.327  -0.324  -0.320  -0.316  -0.309  -0.289  -0.287  -0.256
 -0.246  -0.229  -0.216  -0.213  -0.190  -0.185  -0.158
 -- Virtual --
 -0.069  -0.021   0.001   0.007   0.014   0.016   0.017   0.021
  0.025   0.034   0.039   0.040   0.045   0.051   0.057   0.058
  0.061   0.067   0.072   0.078   0.081   0.087   0.091   0.097
  0.100   0.104   0.110   0.116   0.120   0.123   0.130   0.131
  0.134   0.141   0.144   0.148   0.154   0.161   0.163   0.166
  0.169   0.175   0.181   0.182   0.185   0.188   0.190   0.193
  0.196   0.197   0.203   0.207   0.212   0.216   0.218   0.222
  0.225   0.228   0.230   0.235   0.236   0.240   0.246   0.248
  0.251   0.255   0.256   0.264   0.269   0.270   0.272   0.276
  0.277   0.281   0.286   0.289   0.292   0.299   0.303   0.307
  0.311   0.315   0.320   0.324   0.328   0.331   0.332   0.340
  0.346   0.352   0.353   0.356   0.364   0.377   0.385   0.397
  0.399   0.404   0.412   0.422   0.430   0.437   0.440   0.444
  0.459   0.463   0.474   0.491   0.495   0.533   0.544   0.584
  0.591   0.596   0.632   0.654   0.664   0.677   0.681   0.689
  0.701   0.717   0.729   0.735   0.741   0.744   0.755   0.758
  0.764   0.767   0.774   0.781   0.785   0.794   0.813   0.825
  0.842   0.850   0.875   0.898   0.900   0.918   0.920   0.935
  0.949   0.950   0.956   0.967   0.970   0.979   0.982   0.992
  1.000   1.010   1.016   1.029   1.047   1.053   1.068   1.079
  1.082   1.091   1.107   1.116   1.127   1.140   1.145   1.172
  1.175   1.187   1.199   1.204   1.234   1.242   1.247   1.250
  1.259   1.266   1.278   1.287   1.295   1.308   1.320   1.330
  1.342   1.344   1.358   1.373   1.390   1.396   1.403   1.412
  1.430   1.432   1.439   1.444   1.474   1.481   1.494   1.497
  1.509   1.516   1.526   1.554   1.557   1.570   1.588   1.597
  1.628   1.658   1.676   1.694   1.719   1.738   1.746   1.760
  1.788   1.799   1.818   1.838   1.852   1.857   1.873   1.890
  1.917   1.924   1.932   1.938   1.954   1.962   1.975   1.984
  2.002   2.015   2.028   2.029   2.034   2.048   2.056   2.081
  2.087   2.097   2.113   2.129   2.132   2.149   2.166   2.189
  2.194   2.214   2.218   2.231   2.258   2.279   2.285   2.292
  2.298   2.313   2.322   2.326   2.339   2.359   2.375   2.392
  2.438   2.462   2.489   2.506   2.511   2.522   2.559   2.567
  2.609   2.618   2.626   2.637   2.648   2.661   2.687   2.694
  2.711   2.733   2.747   2.756   2.762   2.831   2.858   2.869
  2.885   2.940   2.955   2.973   3.001   3.012   3.013   3.035
  3.064   3.186   3.227   3.250   3.294   3.347   3.392   3.432
  4.034   4.170   4.247   4.254   4.304   4.307   4.330   4.349
  4.362   4.429   4.465   4.469   4.481   4.490   4.511   4.570
  4.792   4.838  33.102
 
 Beta MOs
 -- Occupied --
******* -35.820 -31.260 -31.256 -31.227 -19.172 -19.102 -14.349
-14.330 -14.330 -14.319 -10.244 -10.242 -10.225 -10.223 -10.222
-10.196 -10.188 -10.188 -10.186 -10.186 -10.185 -10.185  -4.015
 -2.622  -2.615  -2.565  -1.041  -0.942  -0.933  -0.872  -0.869
 -0.832  -0.819  -0.789  -0.733  -0.709  -0.695  -0.684  -0.621
 -0.614  -0.579  -0.573  -0.524  -0.517  -0.503  -0.492  -0.490
 -0.472  -0.464  -0.440  -0.435  -0.432  -0.422  -0.408  -0.400
 -0.399  -0.391  -0.387  -0.369  -0.359  -0.346  -0.336  -0.328
 -0.320  -0.319  -0.313  -0.309  -0.305  -0.284  -0.283  -0.240
 -0.231  -0.226  -0.215  -0.202  -0.187  -0.174
 -- Virtual --
 -0.102  -0.063  -0.016   0.008   0.010   0.015   0.017   0.022
  0.025   0.030   0.035   0.040   0.040   0.046   0.052   0.058
  0.059   0.061   0.067   0.073   0.079   0.082   0.087   0.092
  0.098   0.101   0.104   0.111   0.116   0.121   0.124   0.131
  0.132   0.135   0.143   0.145   0.149   0.155   0.162   0.163
  0.167   0.171   0.176   0.182   0.183   0.186   0.189   0.190
  0.194   0.197   0.199   0.205   0.208   0.212   0.217   0.219
  0.223   0.226   0.229   0.231   0.235   0.237   0.240   0.246
  0.248   0.252   0.256   0.256   0.265   0.269   0.271   0.272
  0.277   0.278   0.282   0.287   0.290   0.292   0.300   0.303
  0.308   0.311   0.316   0.321   0.325   0.329   0.332   0.333
  0.341   0.347   0.353   0.354   0.356   0.365   0.378   0.385
  0.398   0.400   0.406   0.413   0.423   0.431   0.438   0.440
  0.445   0.460   0.464   0.474   0.491   0.496   0.534   0.545
  0.585   0.592   0.597   0.635   0.655   0.667   0.679   0.682
  0.689   0.702   0.720   0.730   0.738   0.746   0.749   0.756
  0.762   0.765   0.769   0.775   0.784   0.786   0.796   0.814
  0.827   0.844   0.852   0.876   0.899   0.901   0.919   0.921
  0.935   0.949   0.951   0.957   0.968   0.971   0.980   0.988
  0.997   1.001   1.014   1.019   1.030   1.048   1.056   1.073
  1.080   1.084   1.093   1.109   1.118   1.128   1.141   1.147
  1.173   1.176   1.189   1.201   1.206   1.235   1.246   1.248
  1.251   1.260   1.267   1.278   1.288   1.296   1.309   1.321
  1.331   1.343   1.350   1.359   1.374   1.394   1.400   1.405
  1.414   1.432   1.434   1.442   1.447   1.475   1.487   1.495
  1.501   1.511   1.519   1.529   1.555   1.560   1.578   1.590
  1.599   1.631   1.660   1.681   1.695   1.720   1.741   1.747
  1.761   1.788   1.802   1.819   1.839   1.854   1.860   1.874
  1.896   1.919   1.924   1.933   1.940   1.955   1.964   1.977
  1.985   2.003   2.016   2.031   2.033   2.039   2.050   2.057
  2.083   2.089   2.099   2.115   2.131   2.134   2.151   2.167
  2.190   2.197   2.220   2.223   2.233   2.260   2.282   2.289
  2.295   2.301   2.316   2.326   2.329   2.340   2.361   2.378
  2.395   2.442   2.464   2.490   2.509   2.514   2.523   2.564
  2.569   2.613   2.620   2.627   2.643   2.650   2.663   2.689
  2.695   2.713   2.735   2.750   2.757   2.763   2.835   2.859
  2.870   2.886   2.941   2.955   2.976   3.002   3.015   3.016
  3.036   3.068   3.187   3.229   3.250   3.295   3.349   3.393
  3.433   4.038   4.171   4.249   4.256   4.306   4.310   4.332
  4.351   4.363   4.431   4.466   4.471   4.483   4.493   4.514
  4.570   4.794   4.839  33.106
 --------------------------------------------------------------
 
          Ground-State Mulliken Net Atomic Charges

     Atom                 Charge (a.u.)    Spin (a.u.)
  --------------------------------------------------------
      1 Ni                    0.447681       0.123256
      2 N                    -0.758635       0.240404
      3 N                    -0.771688       0.216687
      4 N                    -0.609238      -0.046574
      5 N                    -0.831210      -0.002932
      6 C                     1.927218       0.044905
      7 H                     0.433198      -0.011250
      8 C                     1.863479       0.055220
      9 H                     0.434343      -0.010022
     10 C                    -1.800496       0.015276
     11 C                    -0.386567       0.093256
     12 C                    -0.399012       0.072566
     13 C                    -1.723089       0.039869
     14 C                     0.935952       0.023944
     15 H                     0.474901       0.001346
     16 C                     1.438099      -0.086828
     17 H                     0.416322      -0.001117
     18 C                    -1.494100       0.219281
     19 C                    -0.211723      -0.088829
     20 C                    -0.285162       0.152236
     21 C                    -0.735727      -0.037158
     22 H                     0.206976      -0.002912
     23 H                     0.195741      -0.005305
     24 H                     0.195570      -0.004377
     25 H                     0.206365      -0.002185
     26 H                     0.202592      -0.009194
     27 H                     0.199579       0.002830
     28 H                     0.202197      -0.006962
     29 H                     0.226401       0.010089
     30 O                    -0.233600       0.003093
     31 O                    -0.766369       0.001387
  --------------------------------------------------------
  Sum of atomic charges =    -1.000000
  Sum of spin   charges =     1.000000

 -----------------------------------------------------------------
                    Cartesian Multipole Moments
 -----------------------------------------------------------------
    Charge (ESU x 10^10)
                -4.8032
    Dipole Moment (Debye)
         X      -7.8255      Y     -21.2196      Z      -3.5870
       Tot      22.8993
    Quadrupole Moments (Debye-Ang)
        XX    -150.2780     XY     -46.6552     YY    -207.2357
        XZ     -11.3989     YZ     -15.5211     ZZ    -135.0893
    Octopole Moments (Debye-Ang^2)
       XXX      31.7274    XXY    -372.1043    XYY    -242.3618
       YYY   -1141.0430    XXZ     -37.2766    XYZ     -63.6229
       YYZ     -96.3452    XZZ      19.7816    YZZ    -263.4939
       ZZZ     -52.3220
    Hexadecapole Moments (Debye-Ang^3)
      XXXX   -7904.9244   XXXY    -397.5323   XXYY   -2588.6571
      XYYY   -1504.2988   YYYY   -6522.4621   XXXZ    -226.6106
      XXYZ    -170.3807   XYYZ    -324.3905   YYYZ    -611.4617
      XXZZ   -1558.1329   XYZZ     -67.6741   YYZZ    -870.4348
      XZZZ    -158.5584   YZZZ    -253.9918   ZZZZ    -300.1249
 -----------------------------------------------------------------
 Calculating analytic gradient of the SCF energy
 Gradient of SCF Energy
            1           2           3           4           5           6
    1   0.0072037  -0.0037625  -0.0103301   0.0138292  -0.0169539  -0.0128783
    2  -0.0012873  -0.0353112   0.0418451  -0.0225916   0.0315787   0.1995381
    3  -0.0153134   0.0011468   0.0071007  -0.0050628   0.0132910   0.0400624
            7           8           9          10          11          12
    1  -0.0082043  -0.0280591  -0.0035967  -0.0121880   0.0367172   0.0388155
    2  -0.0157026  -0.1983285   0.0066721  -0.0206892  -0.0065808   0.0072215
    3  -0.0038170  -0.0204868   0.0018456  -0.0086230  -0.0027696  -0.0031531
           13          14          15          16          17          18
    1  -0.0033098  -0.0288386  -0.0036850   0.0898362   0.0025565  -0.0386873
    2   0.0211564   0.1425989  -0.0281866  -0.1696997   0.0099516   0.0148757
    3  -0.0031900   0.0624073  -0.0053946  -0.0642265  -0.0014262   0.0353627
           19          20          21          22          23          24
    1   0.0061877  -0.0028083  -0.0068309  -0.0006739   0.0121648   0.0123710
    2   0.0297069  -0.0431060   0.0528224  -0.0163330   0.0054517  -0.0069475
    3  -0.0241432   0.0169227  -0.0378955  -0.0032389  -0.0000209  -0.0026123
           25          26          27          28          29          30
    1   0.0010338  -0.0001561  -0.0147867  -0.0221448  -0.0047422   0.0172843
    2   0.0124842   0.0152796   0.0085685  -0.0134150  -0.0148102  -0.0229792
    3   0.0023375   0.0011811  -0.0034632  -0.0066691   0.0211774   0.0214526
           31
    1  -0.0153636
    2   0.0162171
    3  -0.0127818
 Max gradient component =       1.995E-01
 RMS gradient           =       4.336E-02
 Computing fast CPCM-SWIG gradient.
Updating gradient with PCM contributions...
 -- total gradient after adding PCM contribution --
---------------------------------------------------
  Atom         X              Y              Z     
---------------------------------------------------
   1       0.006398      -0.003366      -0.001231
   2      -0.021479      -0.013400       0.000619
   3      -0.022659       0.011870       0.004112
   4       0.000968      -0.001490      -0.000045
   5      -0.007212       0.003694       0.002796
   6       0.027883       0.013124      -0.000710
   7       0.000157       0.001736       0.000035
   8       0.027142      -0.014569      -0.004850
   9      -0.000107      -0.001668      -0.000382
  10      -0.018812      -0.002817       0.000995
  11       0.013441      -0.018539      -0.004789
  12       0.014903       0.017838       0.002061
  13      -0.018384       0.003771       0.002863
  14      -0.000259      -0.000569      -0.000521
  15      -0.000589       0.002249       0.000450
  16       0.002821       0.004665       0.000172
  17      -0.001087      -0.000520      -0.000884
  18      -0.003068       0.002502       0.000677
  19       0.002624      -0.000934      -0.000173
  20      -0.002753      -0.000396      -0.002499
  21      -0.001422       0.001523       0.003212
  22       0.000008      -0.001026      -0.000191
  23       0.001013       0.000051      -0.000051
  24       0.001003      -0.000111      -0.000187
  25       0.000110       0.001035       0.000163
  26       0.000071       0.000337      -0.000073
  27      -0.000764       0.000129      -0.000148
  28      -0.000411      -0.000356       0.000429
  29       0.000691      -0.001435      -0.000447
  30       0.000160      -0.000898      -0.000785
  31      -0.000386      -0.002432      -0.000617
---------------------------------------------------
Number of fixed atoms: 0
 Gradient time:  CPU 342.20 s  wall 96.84 s
 Geometry Optimization Parameters
   NAtoms,    NIC,     NZ,  NCons,   NDum,   NFix, NCnnct, MaxDiis
       31     249       0       0       0       0       0       0


** GEOMETRY OPTIMIZATION IN DELOCALIZED INTERNAL COORDINATES **
   Searching for a Minimum

   Optimization Cycle:   1

                       Coordinates (Angstroms)
     ATOM                X               Y               Z
      1  Ni       -0.5465695350    1.5994385350   -0.2089247648
      2  N        -1.8727055427    2.8464458669    0.0702377185
      3  N        -1.9747099646    0.4272987421   -0.3388563453
      4  N         0.8827476930    2.7719520196    0.0100860920
      5  N         0.7501340409    0.3320418026   -0.3907056028
      6  C        -3.1107853054    2.3887151803    0.1192144393
      7  H        -1.7425737784    3.8369503502    0.2773036211
      8  C        -3.1732173852    0.9477493734   -0.1527696430
      9  H        -1.9299384417   -0.5716818699   -0.5390107251
     10  C        -4.4440106120    0.2856800021   -0.1742195608
     11  C        -5.5692228652    1.0246244873    0.0728544685
     12  C        -5.5065865663    2.4410588644    0.3508579937
     13  C        -4.3170647331    3.1169375302    0.3783708663
     14  C         2.0533343638    2.2113059456    0.0249405327
     15  H         0.9449820165    3.7925018634    0.1981733101
     16  C         2.0201871718    0.7621324422   -0.1417885037
     17  H         0.6067519332   -0.6755011648   -0.3761954330
     18  C         3.1872992455    0.0506112133    0.0406613931
     19  C         4.4175318167    0.7250944697    0.3950485141
     20  C         4.5057981835    2.0707053346    0.5379589615
     21  C         3.3453840471    2.9706221452    0.2163139321
     22  H        -4.2652162743    4.1823918964    0.5843455344
     23  H        -6.5429266886    0.5429304489    0.0646640069
     24  H        -6.4350426588    2.9723679150    0.5393511445
     25  H        -4.4893818359   -0.7800524879   -0.3800345912
     26  H         3.1804411782   -1.0343167375   -0.0292745719
     27  H         5.2963933557    0.1071831746    0.5618814513
     28  H         5.4394920917    2.5549380710    0.8093647956
     29  H         3.5714468532    3.4388801991   -0.7664009683
     30  O         3.2263100269    3.9943772545    1.1826052359
     31  O         2.2909681694    5.0189871326    0.6432266984
   Point Group: c1    Number of degrees of freedom:    87


   Energy is  -2342.227684293


 Attempting to Generate Delocalized Internal Coordinates

 87 Hessian modes will be used to form the next step
  Hessian Eigenvalues:
     0.005245    0.006988    0.008738    0.009020    0.009309    0.009763
     0.010443    0.013954    0.014498    0.016513    0.017702    0.018412
     0.018583    0.019788    0.020029    0.020065    0.021308    0.021447
     0.021692    0.022147    0.022423    0.023012    0.023840    0.024339
     0.050782    0.069479    0.079658    0.086561    0.113842    0.147497
     0.158329    0.158829    0.158944    0.159755    0.159909    0.159990
     0.159997    0.159998    0.160000    0.160000    0.166042    0.209972
     0.215340    0.216605    0.219951    0.220000    0.222853    0.224011
     0.225824    0.231242    0.234466    0.237654    0.241508    0.242455
     0.246141    0.246646    0.250000    0.305044    0.313593    0.324102
     0.331201    0.336149    0.344349    0.351360    0.351381    0.352297
     0.352353    0.352358    0.352503    0.352545    0.377576    0.379924
     0.386941    0.402869    0.413522    0.435651    0.442982    0.443671
     0.446913    0.477113    0.492662    0.494248    0.504516    0.521799
     0.564473    0.607624    0.643097

 Minimum Search - Taking Simple RFO Step
 Searching for Lamda that Minimizes Along All modes
 Value Taken    Lamda =  -0.00581171
 Step Taken.  Stepsize is  0.162878

                             Maximum     Tolerance    Cnvgd?
         Gradient           0.026053      0.000005      NO
         Displacement       0.050457      0.000010      NO
         Energy change     *********      0.000000      NO


 New Cartesian Coordinates Obtained by Inverse Iteration

 Displacement from previous Coordinates is:  0.344036
 ----------------------------------------------------------------
             Standard Nuclear Orientation (Angstroms)
    I     Atom           X                Y                Z
 ----------------------------------------------------------------
    1      Ni     -0.5465116243     1.5958517048    -0.2167154590
    2      N      -1.8793710771     2.8482738813     0.0689613076
    3      N      -1.9808273488     0.4266318101    -0.3456953020
    4      N       0.8916131641     2.7620801160     0.0015495860
    5      N       0.7692892529     0.3200873846    -0.4086335627
    6      C      -3.1375125020     2.3817152354     0.1177944617
    7      H      -1.7494436861     3.8356791672     0.2809665722
    8      C      -3.1986388342     0.9563324060    -0.1524281481
    9      H      -1.9373640358    -0.5703852041    -0.5457217407
   10      C      -4.4660207608     0.3042329610    -0.1691292294
   11      C      -5.6153904077     1.0336030266     0.0803310508
   12      C      -5.5541344727     2.4307951733     0.3546033045
   13      C      -4.3422391948     3.0981741321     0.3744659698
   14      C       2.0650855917     2.2031480893     0.0196478493
   15      H       0.9596853389     3.7793850913     0.1894855371
   16      C       2.0373838800     0.7485854205    -0.1499412603
   17      H       0.6334279408    -0.6875491298    -0.3848762535
   18      C       3.2103804932     0.0416639502     0.0376798832
   19      C       4.4317789428     0.7268802107     0.4064015941
   20      C       4.5199312481     2.0735083488     0.5484589585
   21      C       3.3583566146     2.9714858844     0.2147905299
   22      H      -4.2865329144     4.1650189477     0.5803661242
   23      H      -6.5876230992     0.5458645176     0.0728523305
   24      H      -6.4810257055     2.9663872550     0.5466821089
   25      H      -4.5066872090    -0.7631669718    -0.3754866321
   26      H       3.2111040085    -1.0437885585    -0.0321020686
   27      H       5.3144244533     0.1140234903     0.5787106780
   28      H       5.4531915685     2.5605348390     0.8187497411
   29      H       3.5864433476     3.4489363914    -0.7631493525
   30      O       3.2473799959     3.9972638918     1.1857667680
   31      O       2.3790970311     5.0811165378     0.6448946536
 ----------------------------------------------------------------
 Nuclear Repulsion Energy =  1774.0233228605 hartrees
 There are       79 alpha and       78 beta electrons
No default van der Waals radius is available for Z = 28
	Found R = 1.6300 A in the $van_der_waals section
Discretize the solute cavity surface with Lebedev spheres
	Using 194 Lebedev grid points for each H atom
	Using 194 Lebedev grid points for other atoms
	Atomic van der Waals radii will be scaled by 1.20
 Serial switch compute.
 Remove points where switching function is < 1.0e-08
 Keep 2560 surface tesserae and discard 3454 interior tesserae
 Molecular Surface Area = 292.729 Angst**2
 Applying Cartesian multipole field
    Component          Value
    ---------          -----
     (2,0,0)        1.00000E-12
     (0,2,0)        2.00000E-11
     (0,0,2)       -3.00000E-11
 Nucleus-field energy     =     0.0000000634 hartrees
 Requested basis set is 6-31+G(d)
 There are 122 shells and 402 basis functions
 A cutoff of  1.0D-12 yielded   5490 shell pairs
 There are     63738 function pairs (     64743 Cartesian)
 Smallest overlap matrix eigenvalue = 1.04E-06
 Guess MOs from SCF MO coefficient file
 Reading MOs from coefficient file
 Reading MOs from coefficient file
 An unrestricted hybrid HF-DFT SCF calculation will be
 performed using Pulay DIIS extrapolation
 Polarizable Continuum solvation model will be applied
 Exchange:     0.2000 Hartree-Fock + 0.0800 Slater + 0.7200 B88
 Correlation:  0.1900 VWN1RPA + 0.8100 LYP
 Using Euler-Maclaurin-Lebedev (75,302) quadrature formula
 SCF converges when DIIS error is below 1.0E-08
 Geometry optimization detected.  Setting ReadMinima to 0
 Setting SaveMinima to 0
 using 4 threads for integral computing 
 -------------------------------------------------------
 OpenMP BLAS3 based DFT computing Module                
 Release: version 1.0, May 2013, Q-Chem Inc. Pittsburgh 
 -------------------------------------------------------
 ---------------------------------------
  Cycle       Energy         DIIS Error
 ---------------------------------------
    1   -2342.0496091410      1.51E-03
    2   -2341.9924613122      2.57E-03
    3   -2342.1545562052      2.23E-03
    4   -2342.1788144546      1.95E-03
    5   -2342.2167899904      8.58E-04
    6   -2342.2235275708      6.12E-04
    7   -2342.2285995841      3.25E-04
    8   -2342.2301052061      1.71E-04
    9   -2342.2306514607      5.31E-05
   10   -2342.2307162568      2.38E-05
   11   -2342.2307310785      1.53E-05
   12   -2342.2307368907      9.44E-06
   13   -2342.2307395512      4.47E-06
   14   -2342.2307405132      2.14E-06
   15   -2342.2307408634      1.13E-06
   16   -2342.2307409918      4.82E-07
   17   -2342.2307410434      1.38E-07
   18   -2342.2307410684      1.02E-07
   19   -2342.2307410827      5.03E-08
   20   -2342.2307410897      3.06E-08
   21   -2342.2307410916      1.92E-08
   22   -2342.2307410935      1.67E-08
   23   -2342.2307410949      9.55E-09 Convergence criterion met
 ---------------------------------------

************** Final PCM Free Energy Summary **************
 G_electrostatic  =      -0.11384137 hartree =     -71.43653724 kcal/mol
 G_cavitation     =       0.00000000 hartree =       0.00000000 kcal/mol
 G_dispersion     =       0.00000000 hartree =       0.00000000 kcal/mol
 G_repulsion      =       0.00000000 hartree =       0.00000000 kcal/mol
 --------------------------------------------------
 Non-electrostatic Free Energy =       0.00000000 hartree =       0.00000000 kcal/mol
 Total                         =      -0.11384137 hartree =     -71.43653724 kcal/mol
 --------------------------------------------------
 SCF Energy (H0 + V/2)                       =   -2342.23074109 
 Solute Internal Energy (H0)                 =   -2342.11689973 
 Total Free Energy (H0 + V/2 + non-elec)     =   -2342.23074109 hartree
                                             = -1469771.97330441 kcal/mol
***********************************************************

 <S^2> = 0.7785
 SCF time:  CPU 1778.12 s  wall 522.72 s
 SCF   energy in the final basis set = -2342.2307410949
 Total energy in the final basis set = -2342.2307410949
 
 --------------------------------------------------------------
 
                    Orbital Energies (a.u.)
 --------------------------------------------------------------
 
 Alpha MOs
 -- Occupied --
******* -35.829 -31.270 -31.262 -31.236 -19.171 -19.102 -14.353
-14.336 -14.334 -14.323 -10.246 -10.245 -10.228 -10.224 -10.222
-10.197 -10.191 -10.190 -10.189 -10.189 -10.188 -10.187  -4.029
 -2.639  -2.622  -2.582  -1.039  -0.943  -0.933  -0.874  -0.870
 -0.832  -0.823  -0.790  -0.732  -0.713  -0.699  -0.693  -0.623
 -0.616  -0.581  -0.576  -0.525  -0.519  -0.504  -0.493  -0.490
 -0.475  -0.464  -0.441  -0.437  -0.429  -0.424  -0.410  -0.409
 -0.402  -0.392  -0.388  -0.370  -0.361  -0.347  -0.340  -0.332
 -0.326  -0.324  -0.322  -0.318  -0.310  -0.292  -0.289  -0.261
 -0.247  -0.234  -0.215  -0.213  -0.193  -0.185  -0.163
 -- Virtual --
 -0.072  -0.027  -0.001   0.007   0.013   0.016   0.017   0.021
  0.025   0.035   0.039   0.040   0.045   0.051   0.057   0.058
  0.061   0.067   0.072   0.078   0.081   0.087   0.092   0.097
  0.100   0.103   0.110   0.116   0.119   0.123   0.129   0.131
  0.134   0.141   0.144   0.147   0.154   0.160   0.162   0.165
  0.169   0.174   0.180   0.182   0.184   0.188   0.189   0.192
  0.196   0.197   0.203   0.206   0.211   0.215   0.218   0.223
  0.224   0.227   0.230   0.235   0.235   0.239   0.245   0.248
  0.250   0.255   0.255   0.263   0.267   0.269   0.270   0.274
  0.277   0.279   0.283   0.289   0.291   0.295   0.302   0.305
  0.310   0.315   0.319   0.321   0.323   0.328   0.331   0.338
  0.347   0.351   0.353   0.354   0.363   0.376   0.382   0.395
  0.398   0.401   0.410   0.419   0.427   0.433   0.438   0.441
  0.457   0.460   0.471   0.487   0.489   0.530   0.541   0.585
  0.588   0.592   0.630   0.653   0.664   0.676   0.680   0.687
  0.699   0.718   0.734   0.736   0.738   0.742   0.751   0.756
  0.759   0.766   0.770   0.777   0.782   0.792   0.809   0.824
  0.840   0.850   0.872   0.896   0.897   0.913   0.917   0.932
  0.947   0.951   0.953   0.965   0.970   0.978   0.980   0.990
  1.001   1.011   1.016   1.028   1.045   1.051   1.066   1.077
  1.080   1.088   1.105   1.119   1.128   1.137   1.142   1.164
  1.170   1.184   1.195   1.204   1.229   1.240   1.242   1.247
  1.252   1.262   1.275   1.285   1.291   1.307   1.319   1.328
  1.335   1.339   1.354   1.371   1.388   1.390   1.394   1.408
  1.429   1.433   1.439   1.445   1.476   1.477   1.492   1.498
  1.504   1.514   1.522   1.549   1.554   1.573   1.583   1.598
  1.628   1.653   1.678   1.691   1.718   1.731   1.745   1.754
  1.786   1.797   1.815   1.838   1.850   1.855   1.872   1.895
  1.899   1.920   1.927   1.951   1.953   1.958   1.970   1.980
  1.994   2.009   2.014   2.016   2.024   2.041   2.049   2.076
  2.080   2.094   2.106   2.120   2.124   2.134   2.161   2.184
  2.186   2.206   2.223   2.231   2.252   2.268   2.281   2.285
  2.293   2.309   2.313   2.325   2.334   2.353   2.371   2.384
  2.429   2.457   2.483   2.496   2.502   2.516   2.548   2.562
  2.605   2.612   2.619   2.639   2.641   2.651   2.680   2.683
  2.711   2.722   2.733   2.745   2.757   2.826   2.850   2.859
  2.877   2.927   2.944   2.956   2.995   2.998   3.001   3.029
  3.057   3.173   3.209   3.246   3.278   3.337   3.380   3.429
  4.029   4.163   4.244   4.251   4.298   4.305   4.322   4.341
  4.354   4.428   4.459   4.461   4.474   4.482   4.503   4.567
  4.794   4.832  33.078
 
 Beta MOs
 -- Occupied --
******* -35.824 -31.265 -31.260 -31.231 -19.171 -19.102 -14.354
-14.331 -14.330 -14.322 -10.246 -10.245 -10.229 -10.223 -10.222
-10.197 -10.189 -10.188 -10.188 -10.187 -10.187 -10.187  -4.019
 -2.626  -2.618  -2.568  -1.038  -0.944  -0.927  -0.873  -0.863
 -0.831  -0.819  -0.789  -0.729  -0.710  -0.696  -0.690  -0.622
 -0.614  -0.580  -0.574  -0.524  -0.517  -0.503  -0.492  -0.488
 -0.473  -0.464  -0.440  -0.437  -0.428  -0.423  -0.408  -0.401
 -0.397  -0.392  -0.387  -0.369  -0.359  -0.346  -0.336  -0.329
 -0.321  -0.319  -0.314  -0.309  -0.304  -0.287  -0.283  -0.241
 -0.232  -0.230  -0.214  -0.201  -0.186  -0.176
 -- Virtual --
 -0.107  -0.066  -0.022   0.007   0.008   0.015   0.017   0.021
  0.025   0.028   0.035   0.040   0.040   0.046   0.051   0.057
  0.059   0.061   0.067   0.073   0.079   0.081   0.088   0.092
  0.098   0.100   0.103   0.111   0.116   0.120   0.123   0.130
  0.132   0.134   0.143   0.145   0.148   0.154   0.161   0.162
  0.167   0.170   0.175   0.181   0.182   0.186   0.188   0.190
  0.193   0.197   0.198   0.205   0.206   0.211   0.215   0.218
  0.223   0.224   0.227   0.230   0.235   0.236   0.239   0.245
  0.248   0.250   0.255   0.255   0.264   0.267   0.270   0.270
  0.276   0.278   0.281   0.283   0.290   0.292   0.296   0.302
  0.306   0.310   0.315   0.320   0.322   0.325   0.328   0.332
  0.338   0.348   0.351   0.354   0.355   0.364   0.377   0.383
  0.396   0.399   0.403   0.411   0.420   0.428   0.434   0.438
  0.442   0.458   0.461   0.472   0.488   0.490   0.531   0.542
  0.586   0.589   0.593   0.633   0.654   0.667   0.678   0.681
  0.687   0.700   0.721   0.736   0.737   0.743   0.746   0.752
  0.759   0.761   0.768   0.772   0.779   0.784   0.793   0.810
  0.825   0.842   0.852   0.873   0.896   0.898   0.913   0.918
  0.933   0.948   0.952   0.955   0.966   0.971   0.979   0.986
  0.996   1.003   1.014   1.019   1.029   1.046   1.054   1.070
  1.078   1.082   1.089   1.106   1.121   1.129   1.138   1.144
  1.165   1.171   1.186   1.195   1.206   1.229   1.242   1.246
  1.248   1.253   1.263   1.276   1.287   1.292   1.308   1.320
  1.329   1.336   1.344   1.355   1.372   1.390   1.394   1.398
  1.409   1.431   1.435   1.441   1.449   1.477   1.482   1.494
  1.502   1.505   1.517   1.525   1.550   1.557   1.578   1.586
  1.600   1.630   1.656   1.682   1.693   1.719   1.734   1.745
  1.755   1.786   1.800   1.817   1.839   1.851   1.859   1.874
  1.901   1.902   1.921   1.928   1.952   1.955   1.960   1.972
  1.983   1.995   2.012   2.016   2.018   2.029   2.043   2.051
  2.077   2.081   2.097   2.108   2.124   2.126   2.137   2.162
  2.186   2.188   2.212   2.227   2.234   2.254   2.272   2.285
  2.289   2.296   2.312   2.316   2.327   2.336   2.355   2.373
  2.387   2.432   2.459   2.485   2.500   2.505   2.518   2.552
  2.563   2.609   2.614   2.620   2.642   2.645   2.654   2.681
  2.685   2.713   2.724   2.735   2.747   2.758   2.829   2.851
  2.860   2.878   2.928   2.945   2.958   2.996   3.000   3.003
  3.030   3.060   3.174   3.211   3.246   3.279   3.338   3.380
  3.430   4.032   4.164   4.246   4.253   4.301   4.308   4.324
  4.343   4.355   4.430   4.460   4.463   4.478   4.484   4.506
  4.567   4.795   4.833  33.082
 --------------------------------------------------------------
 
          Ground-State Mulliken Net Atomic Charges

     Atom                 Charge (a.u.)    Spin (a.u.)
  --------------------------------------------------------
      1 Ni                    0.464170       0.142781
      2 N                    -0.755416       0.243382
      3 N                    -0.784607       0.214894
      4 N                    -0.607010      -0.047413
      5 N                    -0.818660       0.006592
      6 C                     1.921126       0.030964
      7 H                     0.433784      -0.011357
      8 C                     1.935158       0.042435
      9 H                     0.434375      -0.009916
     10 C                    -1.840575       0.017941
     11 C                    -0.383142       0.083491
     12 C                    -0.399577       0.061700
     13 C                    -1.768535       0.046267
     14 C                     0.944417       0.022138
     15 H                     0.471356       0.001347
     16 C                     1.358581      -0.095843
     17 H                     0.416893      -0.001527
     18 C                    -1.450136       0.234600
     19 C                    -0.218784      -0.095910
     20 C                    -0.272127       0.163345
     21 C                    -0.712820      -0.037200
     22 H                     0.204342      -0.002952
     23 H                     0.197800      -0.004712
     24 H                     0.197609      -0.003747
     25 H                     0.203548      -0.002121
     26 H                     0.205620      -0.009816
     27 H                     0.200615       0.003055
     28 H                     0.204574      -0.007442
     29 H                     0.228859       0.010290
     30 O                    -0.232388       0.003233
     31 O                    -0.779049       0.001501
  --------------------------------------------------------
  Sum of atomic charges =    -1.000000
  Sum of spin   charges =     1.000000

 -----------------------------------------------------------------
                    Cartesian Multipole Moments
 -----------------------------------------------------------------
    Charge (ESU x 10^10)
                -4.8032
    Dipole Moment (Debye)
         X      -7.6178      Y     -21.6458      Z      -3.6028
       Tot      23.2283
    Quadrupole Moments (Debye-Ang)
        XX    -150.9726     XY     -48.4644     YY    -210.7584
        XZ     -11.8194     YZ     -15.9439     ZZ    -135.2488
    Octopole Moments (Debye-Ang^2)
       XXX      29.9280    XXY    -381.0634    XYY    -254.6306
       YYY   -1165.3417    XXZ     -37.6203    XYZ     -65.8346
       YYZ     -99.0392    XZZ      19.9810    YZZ    -264.3363
       ZZZ     -51.9291
    Hexadecapole Moments (Debye-Ang^3)
      XXXX   -7975.0242   XXXY    -436.2929   XXYY   -2669.1190
      XYYY   -1595.2077   YYYY   -6688.9625   XXXZ    -235.7099
      XXYZ    -177.7814   XYYZ    -337.7041   YYYZ    -630.1526
      XXZZ   -1579.8733   XYZZ     -72.0978   YYZZ    -877.7404
      XZZZ    -160.8081   YZZZ    -255.5351   ZZZZ    -302.6951
 -----------------------------------------------------------------
 Calculating analytic gradient of the SCF energy
 Gradient of SCF Energy
            1           2           3           4           5           6
    1   0.0085151   0.0097657   0.0055321   0.0086436  -0.0126447  -0.0303639
    2   0.0026725  -0.0251877   0.0328437  -0.0219067   0.0271419   0.1932615
    3  -0.0151380   0.0012791   0.0039465  -0.0051843   0.0126333   0.0418942
            7           8           9          10          11          12
    1  -0.0078113  -0.0528807  -0.0031614   0.0005346   0.0270046   0.0279083
    2  -0.0171873  -0.1915001   0.0083282  -0.0216364   0.0084947  -0.0073357
    3  -0.0042351  -0.0174897   0.0021457  -0.0094327   0.0005513  -0.0046367
           13          14          15          16          17          18
    1   0.0122562  -0.0231863  -0.0016469   0.0801863   0.0035992  -0.0370231
    2   0.0211508   0.1433808  -0.0297042  -0.1671366   0.0103771   0.0130450
    3  -0.0061314   0.0613070  -0.0054059  -0.0611673  -0.0013458   0.0307478
           19          20          21          22          23          24
    1   0.0035968   0.0011368  -0.0046496  -0.0003470   0.0105149   0.0106589
    2   0.0290481  -0.0425835   0.0465495  -0.0158431   0.0062548  -0.0076224
    3  -0.0221903   0.0176537  -0.0384349  -0.0031484   0.0002461  -0.0025732
           25          26          27          28          29          30
    1   0.0013102  -0.0003368  -0.0137497  -0.0214013  -0.0046778   0.0163478
    2   0.0120770   0.0141019   0.0080346  -0.0131908  -0.0142427  -0.0232882
    3   0.0022458   0.0010835  -0.0034311  -0.0067195   0.0208547   0.0224540
           31
    1  -0.0136306
    2   0.0216032
    3  -0.0123784
 Max gradient component =       1.933E-01
 RMS gradient           =       4.215E-02
 Computing fast CPCM-SWIG gradient.
Updating gradient with PCM contributions...
 -- total gradient after adding PCM contribution --
---------------------------------------------------
  Atom         X              Y              Z     
---------------------------------------------------
   1       0.006456      -0.000787      -0.001127
   2      -0.007355      -0.003804       0.000744
   3      -0.007376       0.003077       0.001238
   4      -0.003821      -0.002923      -0.001456
   5      -0.002976       0.000224       0.001437
   6       0.010023       0.004489      -0.000378
   7       0.000318       0.000245      -0.000306
   8       0.009863      -0.004579      -0.001695
   9       0.000274      -0.000198      -0.000124
  10      -0.007421       0.000483       0.000682
  11       0.002774      -0.005315      -0.001282
  12       0.003213       0.005148       0.000708
  13      -0.007388      -0.000138       0.000811
  14      -0.000923      -0.000284      -0.000290
  15       0.001758       0.001072       0.000870
  16       0.001774       0.000412      -0.000068
  17       0.000126       0.000234      -0.000520
  18      -0.000615      -0.000108       0.000014
  19       0.000671      -0.000322       0.000243
  20      -0.000369       0.000382      -0.000202
  21      -0.001156      -0.000224       0.000909
  22       0.000537      -0.000293      -0.000082
  23      -0.000771       0.000944       0.000273
  24      -0.000859      -0.000912      -0.000122
  25       0.000563       0.000266      -0.000021
  26      -0.000004      -0.000178      -0.000071
  27      -0.000033       0.000062      -0.000167
  28       0.000208       0.000056       0.000196
  29       0.000829       0.000060      -0.000640
  30       0.000230       0.000253      -0.000527
  31       0.001448       0.002658       0.000954
---------------------------------------------------
Number of fixed atoms: 0
 Gradient time:  CPU 340.53 s  wall 98.17 s
 Geometry Optimization Parameters
   NAtoms,    NIC,     NZ,  NCons,   NDum,   NFix, NCnnct, MaxDiis
       31     249       0       0       0       0       0       0

 Cartesian Hessian Update
 Hessian Updated using BFGS Update


** GEOMETRY OPTIMIZATION IN DELOCALIZED INTERNAL COORDINATES **
   Searching for a Minimum

   Optimization Cycle:   2

                       Coordinates (Angstroms)
     ATOM                X               Y               Z
      1  Ni       -0.5465116243    1.5958517048   -0.2167154590
      2  N        -1.8793710771    2.8482738813    0.0689613076
      3  N        -1.9808273488    0.4266318101   -0.3456953020
      4  N         0.8916131641    2.7620801160    0.0015495860
      5  N         0.7692892529    0.3200873846   -0.4086335627
      6  C        -3.1375125020    2.3817152354    0.1177944617
      7  H        -1.7494436861    3.8356791672    0.2809665722
      8  C        -3.1986388342    0.9563324060   -0.1524281481
      9  H        -1.9373640358   -0.5703852041   -0.5457217407
     10  C        -4.4660207608    0.3042329610   -0.1691292294
     11  C        -5.6153904077    1.0336030266    0.0803310508
     12  C        -5.5541344727    2.4307951733    0.3546033045
     13  C        -4.3422391948    3.0981741321    0.3744659698
     14  C         2.0650855917    2.2031480893    0.0196478493
     15  H         0.9596853389    3.7793850913    0.1894855371
     16  C         2.0373838800    0.7485854205   -0.1499412603
     17  H         0.6334279408   -0.6875491298   -0.3848762535
     18  C         3.2103804932    0.0416639502    0.0376798832
     19  C         4.4317789428    0.7268802107    0.4064015941
     20  C         4.5199312481    2.0735083488    0.5484589585
     21  C         3.3583566146    2.9714858844    0.2147905299
     22  H        -4.2865329144    4.1650189477    0.5803661242
     23  H        -6.5876230992    0.5458645176    0.0728523305
     24  H        -6.4810257055    2.9663872550    0.5466821089
     25  H        -4.5066872090   -0.7631669718   -0.3754866321
     26  H         3.2111040085   -1.0437885585   -0.0321020686
     27  H         5.3144244533    0.1140234903    0.5787106780
     28  H         5.4531915685    2.5605348390    0.8187497411
     29  H         3.5864433476    3.4489363914   -0.7631493525
     30  O         3.2473799959    3.9972638918    1.1857667680
     31  O         2.3790970311    5.0811165378    0.6448946536
   Point Group: c1    Number of degrees of freedom:    87


   Energy is  -2342.230741095

 Hessian Updated using BFGS Update

 87 Hessian modes will be used to form the next step
  Hessian Eigenvalues:
     0.005244    0.006978    0.008740    0.009020    0.009305    0.009764
     0.010400    0.014495    0.015715    0.016567    0.017701    0.018410
     0.018582    0.019788    0.020030    0.020068    0.021333    0.021446
     0.021693    0.022154    0.022423    0.023011    0.023833    0.024339
     0.050498    0.069346    0.079695    0.086464    0.113793    0.147692
     0.158199    0.158340    0.159043    0.159364    0.159755    0.159914
     0.159994    0.159998    0.160000    0.160177    0.165991    0.206206
     0.210081    0.215795    0.219680    0.220000    0.222359    0.224521
     0.225679    0.231032    0.233440    0.235921    0.239807    0.241525
     0.243873    0.246651    0.273185    0.306089    0.313528    0.322807
     0.326950    0.336897    0.345246    0.351320    0.351422    0.352056
     0.352327    0.352419    0.352513    0.352971    0.366153    0.377749
     0.386945    0.393152    0.413241    0.438948    0.443178    0.444002
     0.447056    0.477060    0.490872    0.492682    0.498499    0.522036
     0.559528    0.564846    0.643696

 Minimum Search - Taking Simple RFO Step
 Searching for Lamda that Minimizes Along All modes
 Value Taken    Lamda =  -0.00200912
 Step Taken.  Stepsize is  0.216669

                             Maximum     Tolerance    Cnvgd?
         Gradient           0.008539      0.000005      NO
         Displacement       0.061017      0.000010      NO
         Energy change     -0.003057      0.000000      NO


 New Cartesian Coordinates Obtained by Inverse Iteration

 Displacement from previous Coordinates is:  0.459900
 ----------------------------------------------------------------
             Standard Nuclear Orientation (Angstroms)
    I     Atom           X                Y                Z
 ----------------------------------------------------------------
    1      Ni     -0.5398636673     1.5972575994    -0.2239055755
    2      N      -1.8673823614     2.8568953499     0.0626619463
    3      N      -1.9736191673     0.4314303814    -0.3492918694
    4      N       0.9051482647     2.7590060729    -0.0086739632
    5      N       0.7844670757     0.3125372657    -0.4216653626
    6      C      -3.1380649202     2.3858122581     0.1144360786
    7      H      -1.7364618613     3.8419550662     0.2801257420
    8      C      -3.2015856282     0.9698845803    -0.1506370921
    9      H      -1.9337481178    -0.5655836689    -0.5448873959
   10      C      -4.4606440559     0.3220190840    -0.1606397560
   11      C      -5.6201290592     1.0513457489     0.0903257578
   12      C      -5.5566535396     2.4389177873     0.3575648249
   13      C      -4.3323767152     3.1017215774     0.3694022287
   14      C       2.0764946000     2.1947725952     0.0103625061
   15      H       0.9680686934     3.7760473294     0.1663802978
   16      C       2.0507181862     0.7392698693    -0.1570733729
   17      H       0.6491825303    -0.6947670856    -0.3827832791
   18      C       3.2286884659     0.0389588222     0.0368653184
   19      C       4.4446748301     0.7335695155     0.4094283117
   20      C       4.5298370407     2.0810686806     0.5488010767
   21      C       3.3611000625     2.9682097824     0.2099804939
   22      H      -4.2748852595     4.1701863644     0.5716473290
   23      H      -6.5880182854     0.5548774029     0.0851186538
   24      H      -6.4762410406     2.9861380357     0.5523838560
   25      H      -4.5037100625    -0.7470587356    -0.3630663928
   26      H       3.2360945486    -1.0466304316    -0.0284234592
   27      H       5.3295629807     0.1250764775     0.5888424931
   28      H       5.4592785660     2.5744128696     0.8200056420
   29      H       3.5736065979     3.4607654118    -0.7624975920
   30      O       3.2056975128     3.9812409283     1.1859839545
   31      O       2.2000137858     4.9530330653     0.6725085995
 ----------------------------------------------------------------
 Nuclear Repulsion Energy =  1777.8328007869 hartrees
 There are       79 alpha and       78 beta electrons
No default van der Waals radius is available for Z = 28
	Found R = 1.6300 A in the $van_der_waals section
Discretize the solute cavity surface with Lebedev spheres
	Using 194 Lebedev grid points for each H atom
	Using 194 Lebedev grid points for other atoms
	Atomic van der Waals radii will be scaled by 1.20
 Serial switch compute.
 Remove points where switching function is < 1.0e-08
 Keep 2562 surface tesserae and discard 3452 interior tesserae
 Molecular Surface Area = 291.631 Angst**2
 Applying Cartesian multipole field
    Component          Value
    ---------          -----
     (2,0,0)        1.00000E-12
     (0,2,0)        2.00000E-11
     (0,0,2)       -3.00000E-11
 Nucleus-field energy     =     0.0000000626 hartrees
 Requested basis set is 6-31+G(d)
 There are 122 shells and 402 basis functions
 A cutoff of  1.0D-12 yielded   5494 shell pairs
 There are     63894 function pairs (     64899 Cartesian)
 Smallest overlap matrix eigenvalue = 9.80E-07
 Linear dependence detected in AO basis
 Number of orthogonalized atomic orbitals = 401
 Maximum deviation from orthogonality = 9.562E-11
 No. of orbitals has changed due to linear dependencies.  Generating new SCF guess.
 Guess from superposition of atomic densities
 Warning:  Energy on first SCF cycle will be non-variational
 An unrestricted hybrid HF-DFT SCF calculation will be
 performed using Pulay DIIS extrapolation
 Polarizable Continuum solvation model will be applied
 Exchange:     0.2000 Hartree-Fock + 0.0800 Slater + 0.7200 B88
 Correlation:  0.1900 VWN1RPA + 0.8100 LYP
 Using Euler-Maclaurin-Lebedev (75,302) quadrature formula
 SCF converges when DIIS error is below 1.0E-08
 Geometry optimization detected.  Setting ReadMinima to 0
 Setting SaveMinima to 0
 using 4 threads for integral computing 
 -------------------------------------------------------
 OpenMP BLAS3 based DFT computing Module                
 Release: version 1.0, May 2013, Q-Chem Inc. Pittsburgh 
 -------------------------------------------------------
 ---------------------------------------
  Cycle       Energy         DIIS Error
 ---------------------------------------
    1   -2346.0867452854      3.65E-02
    2   -2341.8805631705      4.02E-03
    3   -2341.4265535582      6.76E-03
    4   -2342.0391025891      4.11E-03
    5   -2342.1832887846      2.04E-03
    6   -2342.2266371760      3.85E-04
    7   -2342.2290869397      2.18E-04
    8   -2342.2299740338      7.03E-05
    9   -2342.2301576124      3.86E-05
   10   -2342.2302264316      2.44E-05
   11   -2342.2302666628      5.47E-06
   12   -2342.2302720285      4.50E-06
   13   -2342.2302744501      4.39E-06
   14   -2342.2302757470      2.86E-06
   15   -2342.2302767440      1.85E-06
   16   -2342.2302779191      9.48E-07
   17   -2342.2302782736      3.92E-07
   18   -2342.2302783829      1.37E-07
   19   -2342.2302783880      1.35E-07
   20   -2342.2302784157      3.39E-08
   21   -2342.2302784273      2.88E-08
   22   -2342.2302784331      1.18E-08
   23   -2342.2302784360      7.87E-09 Convergence criterion met
 ---------------------------------------

************** Final PCM Free Energy Summary **************
 G_electrostatic  =      -0.11117740 hartree =     -69.76486858 kcal/mol
 G_cavitation     =       0.00000000 hartree =       0.00000000 kcal/mol
 G_dispersion     =       0.00000000 hartree =       0.00000000 kcal/mol
 G_repulsion      =       0.00000000 hartree =       0.00000000 kcal/mol
 --------------------------------------------------
 Non-electrostatic Free Energy =       0.00000000 hartree =       0.00000000 kcal/mol
 Total                         =      -0.11117740 hartree =     -69.76486858 kcal/mol
 --------------------------------------------------
 SCF Energy (H0 + V/2)                       =   -2342.23027844 
 Solute Internal Energy (H0)                 =   -2342.11910104 
 Total Free Energy (H0 + V/2 + non-elec)     =   -2342.23027844 hartree
                                             = -1469771.68298156 kcal/mol
***********************************************************

 <S^2> = 0.7790
 SCF time:  CPU 1723.16 s  wall 503.23 s
 SCF   energy in the final basis set = -2342.2302784360
 Total energy in the final basis set = -2342.2302784360
 
 --------------------------------------------------------------
 
                    Orbital Energies (a.u.)
 --------------------------------------------------------------
 
 Alpha MOs
 -- Occupied --
******* -35.831 -31.272 -31.263 -31.239 -19.173 -19.104 -14.347
-14.335 -14.332 -14.324 -10.245 -10.244 -10.228 -10.222 -10.221
-10.198 -10.191 -10.189 -10.189 -10.188 -10.187 -10.186  -4.031
 -2.642  -2.623  -2.585  -1.043  -0.940  -0.928  -0.873  -0.865
 -0.834  -0.823  -0.792  -0.730  -0.714  -0.701  -0.692  -0.623
 -0.616  -0.581  -0.576  -0.524  -0.518  -0.503  -0.492  -0.487
 -0.474  -0.467  -0.441  -0.436  -0.427  -0.424  -0.409  -0.407
 -0.403  -0.391  -0.387  -0.369  -0.362  -0.347  -0.340  -0.332
 -0.325  -0.323  -0.322  -0.318  -0.309  -0.293  -0.289  -0.263
 -0.247  -0.235  -0.217  -0.212  -0.194  -0.187  -0.166
 -- Virtual --
 -0.071  -0.028  -0.001   0.007   0.013   0.016   0.017   0.022
  0.025   0.035   0.039   0.040   0.045   0.052   0.057   0.058
  0.060   0.067   0.072   0.079   0.082   0.088   0.092   0.097
  0.099   0.103   0.111   0.116   0.119   0.126   0.129   0.131
  0.133   0.142   0.144   0.148   0.155   0.160   0.163   0.166
  0.170   0.175   0.180   0.183   0.185   0.188   0.191   0.193
  0.197   0.198   0.203   0.208   0.213   0.217   0.219   0.223
  0.228   0.230   0.234   0.234   0.239   0.239   0.246   0.248
  0.252   0.256   0.257   0.264   0.267   0.271   0.272   0.275
  0.279   0.282   0.286   0.290   0.293   0.298   0.305   0.305
  0.310   0.319   0.320   0.324   0.325   0.330   0.333   0.338
  0.350   0.352   0.354   0.359   0.376   0.382   0.393   0.397
  0.401   0.411   0.420   0.424   0.433   0.437   0.443   0.456
  0.460   0.463   0.475   0.489   0.509   0.536   0.586   0.589
  0.593   0.632   0.654   0.664   0.676   0.680   0.686   0.699
  0.719   0.733   0.737   0.739   0.742   0.750   0.756   0.758
  0.765   0.770   0.777   0.783   0.792   0.807   0.822   0.838
  0.851   0.871   0.892   0.896   0.912   0.916   0.926   0.947
  0.950   0.952   0.964   0.967   0.977   0.979   0.990   0.999
  1.012   1.016   1.026   1.043   1.051   1.065   1.077   1.078
  1.089   1.105   1.111   1.129   1.129   1.139   1.156   1.169
  1.175   1.199   1.204   1.220   1.239   1.242   1.245   1.256
  1.261   1.280   1.286   1.297   1.310   1.314   1.327   1.336
  1.338   1.354   1.372   1.388   1.391   1.397   1.408   1.420
  1.437   1.444   1.447   1.476   1.477   1.492   1.500   1.500
  1.514   1.522   1.552   1.558   1.574   1.585   1.598   1.632
  1.658   1.682   1.689   1.714   1.729   1.746   1.753   1.788
  1.794   1.816   1.840   1.843   1.853   1.871   1.891   1.899
  1.925   1.927   1.948   1.955   1.959   1.965   1.979   1.989
  2.001   2.009   2.013   2.022   2.041   2.055   2.081   2.085
  2.102   2.107   2.122   2.127   2.131   2.163   2.182   2.185
  2.207   2.223   2.232   2.250   2.263   2.278   2.288   2.295
  2.305   2.314   2.324   2.335   2.354   2.361   2.384   2.432
  2.461   2.485   2.495   2.503   2.516   2.546   2.560   2.605
  2.609   2.617   2.641   2.645   2.649   2.679   2.682   2.712
  2.722   2.733   2.752   2.755   2.819   2.847   2.858   2.876
  2.925   2.942   2.952   2.990   2.996   3.000   3.026   3.055
  3.173   3.205   3.248   3.272   3.334   3.369   3.435   4.027
  4.169   4.244   4.251   4.289   4.308   4.314   4.345   4.360
  4.412   4.458   4.461   4.471   4.476   4.492   4.566   4.795
  4.835  33.080
 
 Beta MOs
 -- Occupied --
******* -35.826 -31.266 -31.261 -31.233 -19.173 -19.104 -14.348
-14.330 -14.328 -14.323 -10.245 -10.244 -10.229 -10.221 -10.220
-10.199 -10.189 -10.188 -10.188 -10.187 -10.186 -10.186  -4.019
 -2.626  -2.618  -2.569  -1.043  -0.941  -0.923  -0.872  -0.857
 -0.833  -0.819  -0.791  -0.727  -0.711  -0.696  -0.691  -0.622
 -0.614  -0.580  -0.574  -0.523  -0.516  -0.502  -0.491  -0.485
 -0.473  -0.466  -0.441  -0.436  -0.426  -0.423  -0.407  -0.402
 -0.396  -0.390  -0.386  -0.367  -0.360  -0.346  -0.337  -0.328
 -0.320  -0.319  -0.315  -0.308  -0.303  -0.287  -0.283  -0.241
 -0.231  -0.230  -0.216  -0.198  -0.188  -0.177
 -- Virtual --
 -0.108  -0.064  -0.022   0.007   0.008   0.014   0.017   0.023
  0.025   0.027   0.035   0.040   0.040   0.046   0.052   0.057
  0.059   0.060   0.067   0.073   0.079   0.082   0.088   0.093
  0.098   0.100   0.104   0.112   0.116   0.120   0.127   0.130
  0.131   0.134   0.143   0.145   0.149   0.155   0.161   0.163
  0.168   0.171   0.176   0.181   0.183   0.186   0.189   0.192
  0.194   0.197   0.200   0.205   0.209   0.213   0.217   0.219
  0.224   0.228   0.230   0.235   0.236   0.239   0.240   0.247
  0.249   0.253   0.256   0.257   0.265   0.267   0.271   0.272
  0.276   0.280   0.283   0.287   0.291   0.294   0.299   0.305
  0.307   0.311   0.320   0.321   0.325   0.326   0.331   0.333
  0.339   0.351   0.352   0.355   0.360   0.377   0.383   0.394
  0.398   0.402   0.412   0.420   0.424   0.434   0.438   0.444
  0.457   0.462   0.464   0.475   0.490   0.509   0.537   0.587
  0.590   0.594   0.634   0.654   0.667   0.678   0.681   0.687
  0.700   0.722   0.735   0.738   0.743   0.746   0.751   0.757
  0.761   0.766   0.772   0.779   0.784   0.794   0.809   0.823
  0.839   0.853   0.871   0.892   0.897   0.912   0.916   0.927
  0.948   0.951   0.953   0.965   0.968   0.978   0.986   0.996
  1.001   1.014   1.020   1.027   1.045   1.054   1.070   1.078
  1.080   1.090   1.106   1.112   1.130   1.131   1.140   1.158
  1.170   1.176   1.200   1.206   1.221   1.240   1.244   1.249
  1.257   1.262   1.281   1.287   1.298   1.310   1.314   1.328
  1.337   1.343   1.355   1.373   1.390   1.394   1.400   1.410
  1.422   1.439   1.446   1.450   1.478   1.482   1.494   1.502
  1.503   1.516   1.525   1.554   1.560   1.579   1.589   1.600
  1.634   1.661   1.685   1.692   1.716   1.732   1.747   1.754
  1.789   1.797   1.818   1.842   1.844   1.856   1.873   1.895
  1.906   1.925   1.928   1.949   1.957   1.961   1.967   1.981
  1.991   2.003   2.010   2.014   2.027   2.043   2.057   2.081
  2.087   2.105   2.109   2.124   2.130   2.134   2.164   2.184
  2.187   2.212   2.226   2.236   2.252   2.267   2.283   2.291
  2.298   2.308   2.316   2.327   2.337   2.357   2.363   2.387
  2.435   2.463   2.487   2.498   2.507   2.517   2.550   2.561
  2.608   2.611   2.618   2.644   2.649   2.652   2.681   2.684
  2.713   2.724   2.736   2.753   2.755   2.822   2.848   2.859
  2.877   2.926   2.944   2.954   2.993   2.997   3.002   3.027
  3.059   3.174   3.208   3.249   3.273   3.335   3.370   3.436
  4.031   4.170   4.246   4.252   4.291   4.310   4.317   4.347
  4.361   4.414   4.460   4.463   4.472   4.479   4.494   4.566
  4.797   4.836  33.085
 --------------------------------------------------------------
 
          Ground-State Mulliken Net Atomic Charges

     Atom                 Charge (a.u.)    Spin (a.u.)
  --------------------------------------------------------
      1 Ni                    0.348354       0.166743
      2 N                    -0.782131       0.241945
      3 N                    -0.822081       0.209024
      4 N                    -0.603251      -0.048010
      5 N                    -0.791020       0.013532
      6 C                     0.975278       0.017770
      7 H                     0.430462      -0.011329
      8 C                     1.059568       0.035430
      9 H                     0.430327      -0.009712
     10 C                    -0.967363       0.023992
     11 C                    -0.281734       0.075961
     12 C                    -0.281310       0.053713
     13 C                    -0.909946       0.047157
     14 C                     0.988376       0.019978
     15 H                     0.481442       0.001290
     16 C                     1.314912      -0.101237
     17 H                     0.416309      -0.001883
     18 C                    -1.381076       0.244920
     19 C                    -0.215186      -0.099690
     20 C                    -0.280500       0.169946
     21 C                    -0.773070      -0.037071
     22 H                     0.199605      -0.002932
     23 H                     0.197720      -0.004274
     24 H                     0.197493      -0.003263
     25 H                     0.198837      -0.002034
     26 H                     0.205939      -0.010114
     27 H                     0.200887       0.003153
     28 H                     0.205469      -0.007675
     29 H                     0.225005       0.010028
     30 O                    -0.232463       0.003429
     31 O                    -0.754853       0.001212
  --------------------------------------------------------
  Sum of atomic charges =    -1.000000
  Sum of spin   charges =     1.000000

 -----------------------------------------------------------------
                    Cartesian Multipole Moments
 -----------------------------------------------------------------
    Charge (ESU x 10^10)
                -4.8032
    Dipole Moment (Debye)
         X      -6.3043      Y     -20.8799      Z      -3.5647
       Tot      22.1003
    Quadrupole Moments (Debye-Ang)
        XX    -148.2848     XY     -42.3503     YY    -204.4426
        XZ     -11.2815     YZ     -15.8648     ZZ    -135.4492
    Octopole Moments (Debye-Ang^2)
       XXX      54.1077    XXY    -360.7497    XYY    -218.6322
       YYY   -1118.9222    XXZ     -34.1358    XYZ     -62.6575
       YYZ     -96.7497    XZZ      21.7543    YZZ    -263.7454
       ZZZ     -51.4494
    Hexadecapole Moments (Debye-Ang^3)
      XXXX   -7923.7131   XXXY    -315.4919   XXYY   -2536.6387
      XYYY   -1360.7669   YYYY   -6349.1873   XXXZ    -218.8256
      XXYZ    -163.2206   XYYZ    -317.7046   YYYZ    -609.0205
      XXZZ   -1573.5297   XYZZ     -57.3473   YYZZ    -867.4484
      XZZZ    -155.6959   YZZZ    -253.8336   ZZZZ    -305.1727
 -----------------------------------------------------------------
 Calculating analytic gradient of the SCF energy
 Gradient of SCF Energy
            1           2           3           4           5           6
    1  -0.0044096   0.0166009   0.0149491   0.0151187  -0.0081690  -0.0182696
    2   0.0018588  -0.0119028   0.0213090  -0.0136179   0.0263234   0.1400664
    3  -0.0157954   0.0031932   0.0010310  -0.0031815   0.0120890   0.0246528
            7           8           9          10          11          12
    1  -0.0081219  -0.0561211  -0.0029406   0.0037168   0.0175046   0.0207784
    2  -0.0191137  -0.1376101   0.0100867   0.0266373   0.0003224   0.0010681
    3  -0.0048356  -0.0123103   0.0024446   0.0032056  -0.0000808  -0.0017604
           13          14          15          16          17          18
    1   0.0021292  -0.0137992  -0.0045489   0.0815182   0.0041973  -0.0365977
    2  -0.0270578   0.1367660  -0.0333697  -0.1703000   0.0108932   0.0122825
    3  -0.0071987   0.0656318  -0.0073927  -0.0632179  -0.0012653   0.0305482
           19          20          21          22          23          24
    1   0.0037127  -0.0003912  -0.0100837  -0.0004298   0.0109904   0.0110795
    2   0.0297216  -0.0420128   0.0564870  -0.0162077   0.0063874  -0.0078133
    3  -0.0229527   0.0182633  -0.0378938  -0.0031860   0.0001540  -0.0026360
           25          26          27          28          29          30
    1   0.0013100  -0.0005369  -0.0132476  -0.0208031  -0.0052983   0.0183801
    2   0.0124374   0.0142508   0.0078142  -0.0125838  -0.0145012  -0.0210325
    3   0.0022795   0.0011169  -0.0033084  -0.0066565   0.0208738   0.0195467
           31
    1  -0.0182179
    2   0.0124113
    3  -0.0113581
 Max gradient component =       1.703E-01
 RMS gradient           =       3.703E-02
 Computing fast CPCM-SWIG gradient.
Updating gradient with PCM contributions...
 -- total gradient after adding PCM contribution --
---------------------------------------------------
  Atom         X              Y              Z     
---------------------------------------------------
   1       0.002018       0.001064      -0.000894
   2      -0.000122       0.001777       0.000503
   3       0.001280      -0.001608      -0.000320
   4       0.002377       0.010224       0.003714
   5      -0.000048      -0.000854       0.000505
   6      -0.002117      -0.001602       0.000435
   7       0.000416      -0.000404      -0.000342
   8      -0.002271       0.002293      -0.000027
   9       0.000518       0.000466       0.000033
  10       0.001237       0.002003       0.000530
  11      -0.001796       0.002307       0.000575
  12      -0.001967      -0.002170      -0.000242
  13       0.000931      -0.002298      -0.000652
  14       0.002147      -0.000073       0.000380
  15      -0.001898      -0.002911      -0.002153
  16       0.000541      -0.001070      -0.001446
  17       0.000527       0.000401      -0.000051
  18       0.000739      -0.000677       0.000144
  19       0.000093       0.000098      -0.000059
  20       0.001144      -0.000815       0.000387
  21       0.001105       0.000906       0.001952
  22       0.000559       0.000303       0.000034
  23      -0.000721       0.000651       0.000190
  24      -0.000786      -0.000610      -0.000027
  25       0.000522      -0.000343      -0.000105
  26      -0.000200      -0.000121       0.000059
  27       0.000253       0.000008       0.000029
  28      -0.000082       0.000361       0.000067
  29      -0.001016      -0.000178       0.000283
  30       0.000859      -0.001431      -0.001911
  31      -0.004244      -0.005697      -0.001591
---------------------------------------------------
Number of fixed atoms: 0
 Gradient time:  CPU 337.44 s  wall 95.10 s
 Geometry Optimization Parameters
   NAtoms,    NIC,     NZ,  NCons,   NDum,   NFix, NCnnct, MaxDiis
       31     249       0       0       0       0       0       0

 Cartesian Hessian Update
 Hessian Updated using BFGS Update


** GEOMETRY OPTIMIZATION IN DELOCALIZED INTERNAL COORDINATES **
   Searching for a Minimum

   Optimization Cycle:   3

                       Coordinates (Angstroms)
     ATOM                X               Y               Z
      1  Ni       -0.5398636673    1.5972575994   -0.2239055755
      2  N        -1.8673823614    2.8568953499    0.0626619463
      3  N        -1.9736191673    0.4314303814   -0.3492918694
      4  N         0.9051482647    2.7590060729   -0.0086739632
      5  N         0.7844670757    0.3125372657   -0.4216653626
      6  C        -3.1380649202    2.3858122581    0.1144360786
      7  H        -1.7364618613    3.8419550662    0.2801257420
      8  C        -3.2015856282    0.9698845803   -0.1506370921
      9  H        -1.9337481178   -0.5655836689   -0.5448873959
     10  C        -4.4606440559    0.3220190840   -0.1606397560
     11  C        -5.6201290592    1.0513457489    0.0903257578
     12  C        -5.5566535396    2.4389177873    0.3575648249
     13  C        -4.3323767152    3.1017215774    0.3694022287
     14  C         2.0764946000    2.1947725952    0.0103625061
     15  H         0.9680686934    3.7760473294    0.1663802978
     16  C         2.0507181862    0.7392698693   -0.1570733729
     17  H         0.6491825303   -0.6947670856   -0.3827832791
     18  C         3.2286884659    0.0389588222    0.0368653184
     19  C         4.4446748301    0.7335695155    0.4094283117
     20  C         4.5298370407    2.0810686806    0.5488010767
     21  C         3.3611000625    2.9682097824    0.2099804939
     22  H        -4.2748852595    4.1701863644    0.5716473290
     23  H        -6.5880182854    0.5548774029    0.0851186538
     24  H        -6.4762410406    2.9861380357    0.5523838560
     25  H        -4.5037100625   -0.7470587356   -0.3630663928
     26  H         3.2360945486   -1.0466304316   -0.0284234592
     27  H         5.3295629807    0.1250764775    0.5888424931
     28  H         5.4592785660    2.5744128696    0.8200056420
     29  H         3.5736065979    3.4607654118   -0.7624975920
     30  O         3.2056975128    3.9812409283    1.1859839545
     31  O         2.2000137858    4.9530330653    0.6725085995
   Point Group: c1    Number of degrees of freedom:    87


   Energy is  -2342.230278436

 Hessian Updated using BFGS Update

 86 Hessian modes will be used to form the next step
  Hessian Eigenvalues:
     0.005243    0.006991    0.008734    0.009015    0.009276    0.009763
     0.010402    0.014491    0.016516    0.017695    0.018408    0.018579
     0.019989    0.020058    0.021307    0.021439    0.021692    0.021949
     0.022423    0.023006    0.023800    0.024336    0.024788    0.050812
     0.069486    0.084486    0.086371    0.113606    0.147672    0.148322
     0.158371    0.158932    0.159443    0.159758    0.159915    0.159997
     0.159998    0.160000    0.160023    0.189820    0.203027    0.210150
     0.217708    0.219579    0.220000    0.223087    0.224436    0.229217
     0.230612    0.231771    0.238743    0.241495    0.243338    0.246573
     0.251461    0.289858    0.305571    0.313764    0.324219    0.336083
     0.343485    0.351122    0.351392    0.351708    0.352325    0.352407
[...]
  24       0.000000       0.000003      -0.000002
  25      -0.000000       0.000001       0.000004
  26      -0.000001      -0.000002       0.000005
  27      -0.000001      -0.000002       0.000002
  28       0.000000      -0.000001      -0.000002
  29       0.000001      -0.000003      -0.000003
  30       0.000001       0.000001      -0.000004
  31       0.000002       0.000000      -0.000005
---------------------------------------------------
Number of fixed atoms: 0
 Gradient time:  CPU 339.09 s  wall 95.50 s
 Geometry Optimization Parameters
   NAtoms,    NIC,     NZ,  NCons,   NDum,   NFix, NCnnct, MaxDiis
       31     249       0       0       0       0       0       0

 Cartesian Hessian Update
 Hessian Updated using BFGS Update
**WARNING** Hereditary positive definiteness endangered
**WARNING** Small Scalar Product
 Hessian Update Skipped this cycle


** GEOMETRY OPTIMIZATION IN DELOCALIZED INTERNAL COORDINATES **
   Searching for a Minimum

   Optimization Cycle:  20

                       Coordinates (Angstroms)
     ATOM                X               Y               Z
      1  Ni       -0.5482305661    1.5882840930   -0.2106967797
      2  N        -1.8670750751    2.8488877135    0.0622612570
      3  N        -1.9742513189    0.4186033400   -0.3235090267
      4  N         0.8936820816    2.7545931760   -0.0051326344
      5  N         0.7751523133    0.3124476420   -0.4216385255
      6  C        -3.1351899907    2.3809900771    0.1127352195
      7  H        -1.7383161647    3.8343269324    0.2818528002
      8  C        -3.1993847001    0.9588631649   -0.1398666428
      9  H        -1.9377912136   -0.5795552732   -0.5167793298
     10  C        -4.4589172935    0.3104189163   -0.1581288853
     11  C        -5.6128681350    1.0473452515    0.0814762017
     12  C        -5.5481082718    2.4402918268    0.3420845397
     13  C        -4.3276510008    3.1046138459    0.3587031479
     14  C         2.0672791257    2.1981273566    0.0088942300
     15  H         0.9534212616    3.7713638852    0.1858557306
     16  C         2.0397639418    0.7433908529   -0.1560855627
     17  H         0.6396627708   -0.6949205415   -0.3736298094
     18  C         3.2165039071    0.0418607614    0.0297794362
     19  C         4.4354838179    0.7335444433    0.3932530764
     20  C         4.5216578971    2.0804056966    0.5330082523
     21  C         3.3531144019    2.9732420196    0.2133696310
     22  H        -4.2744375300    4.1738834508    0.5537539420
     23  H        -6.5798492216    0.5501004054    0.0713176299
     24  H        -6.4655777156    2.9933016789    0.5279378279
     25  H        -4.5083882592   -0.7588607770   -0.3539561635
     26  H         3.2227622057   -1.0435058832   -0.0368855841
     27  H         5.3207624000    0.1237068815    0.5639679812
     28  H         5.4553672299    2.5692054622    0.7970896494
     29  H         3.5694091593    3.4832118753   -0.7486411134
     30  O         3.2156842207    3.9716725488    1.2119272491
     31  O         2.2955797219    5.0225291771    0.6949622552
   Point Group: c1    Number of degrees of freedom:    87


   Energy is  -2342.231295086

 Hessian Updated using BFGS Update
**WARNING** Hereditary positive definiteness endangered
**WARNING** Small Scalar Product
 Hessian Update Skipped this cycle

 87 Hessian modes will be used to form the next step
  Hessian Eigenvalues:
     0.001576    0.002979    0.003997    0.005955    0.008958    0.009524
     0.011243    0.013030    0.016065    0.016882    0.018341    0.018544
     0.019729    0.019970    0.020412    0.021174    0.021328    0.021769
     0.022132    0.022455    0.023066    0.023743    0.023903    0.024386
     0.032151    0.047170    0.070091    0.076606    0.085154    0.138545
     0.150518    0.154798    0.158394    0.158853    0.159439    0.159763
     0.159993    0.159999    0.160018    0.160702    0.187229    0.192083
     0.200554    0.216052    0.219232    0.220024    0.223686    0.223903
     0.229199    0.229819    0.232964    0.238000    0.241567    0.244442
     0.246581    0.250171    0.291329    0.308871    0.313357    0.322467
     0.334861    0.342974    0.351251    0.351396    0.352315    0.352391
     0.352436    0.352613    0.352691    0.358485    0.377831    0.385697
     0.387072    0.388614    0.414450    0.443073    0.443729    0.446918
     0.476058    0.488027    0.492665    0.499272    0.521676    0.550474
     0.564142    0.575535    0.647052

 Minimum Search - Taking Simple RFO Step
 Searching for Lamda that Minimizes Along All modes
 Value Taken    Lamda =   0.00000000
 Step Taken.  Stepsize is  0.000265

                             Maximum     Tolerance    Cnvgd?
         Gradient           0.000005      0.000005     YES
         Displacement       0.000148      0.000010      NO
         Energy change     -0.000000      0.000000     YES

 Final energy is   -2342.23129508556     


 ******************************
 **  OPTIMIZATION CONVERGED  **
 ******************************

                       Coordinates (Angstroms)
     ATOM                X               Y               Z
      1  Ni       -0.5482305661    1.5882840930   -0.2106967797
      2  N        -1.8670750751    2.8488877135    0.0622612570
      3  N        -1.9742513189    0.4186033400   -0.3235090267
      4  N         0.8936820816    2.7545931760   -0.0051326344
      5  N         0.7751523133    0.3124476420   -0.4216385255
      6  C        -3.1351899907    2.3809900771    0.1127352195
      7  H        -1.7383161647    3.8343269324    0.2818528002
      8  C        -3.1993847001    0.9588631649   -0.1398666428
      9  H        -1.9377912136   -0.5795552732   -0.5167793298
     10  C        -4.4589172935    0.3104189163   -0.1581288853
     11  C        -5.6128681350    1.0473452515    0.0814762017
     12  C        -5.5481082718    2.4402918268    0.3420845397
     13  C        -4.3276510008    3.1046138459    0.3587031479
     14  C         2.0672791257    2.1981273566    0.0088942300
     15  H         0.9534212616    3.7713638852    0.1858557306
     16  C         2.0397639418    0.7433908529   -0.1560855627
     17  H         0.6396627708   -0.6949205415   -0.3736298094
     18  C         3.2165039071    0.0418607614    0.0297794362
     19  C         4.4354838179    0.7335444433    0.3932530764
     20  C         4.5216578971    2.0804056966    0.5330082523
     21  C         3.3531144019    2.9732420196    0.2133696310
     22  H        -4.2744375300    4.1738834508    0.5537539420
     23  H        -6.5798492216    0.5501004054    0.0713176299
     24  H        -6.4655777156    2.9933016789    0.5279378279
     25  H        -4.5083882592   -0.7588607770   -0.3539561635
     26  H         3.2227622057   -1.0435058832   -0.0368855841
     27  H         5.3207624000    0.1237068815    0.5639679812
     28  H         5.4553672299    2.5692054622    0.7970896494
     29  H         3.5694091593    3.4832118753   -0.7486411134
     30  O         3.2156842207    3.9716725488    1.2119272491
     31  O         2.2955797219    5.0225291771    0.6949622552

Z-matrix Print:
$molecule
-1 2
Ni
N  1 1.844716
H  2 1.017787 1 127.093680
C  2 1.352624 1 116.065506 3 172.558386 0
C  4 1.416367 2 128.247846 1 -177.367602 0
H  5 1.088216 4 119.469738 2 1.073987 0
C  5 1.389646 4 119.544460 2 -178.666507 0
H  7 1.087250 5 119.729801 4 179.840998 0
C  7 1.418595 5 120.776991 4 0.017864 0
H  9 1.087386 7 119.427976 5 179.848534 0
C  9 1.389990 7 120.954021 5 -0.273432 0
H  11 1.088189 9 120.946204 7 -179.744838 0
C  11 1.416769 9 119.549470 7 -0.100177 0
N  13 1.351502 11 128.402306 9 -178.723400 0
H  14 1.017351 13 116.776248 11 -1.171455 0
N  1 1.850297 2 178.022013 3 -87.855387 0
H  16 1.017572 1 125.591709 2 -74.869909 0
C  16 1.362157 1 115.064506 2 81.369732 0
C  18 1.382537 16 130.985681 1 -166.707164 0
H  19 1.087430 18 120.206392 16 -0.453132 0
C  19 1.447913 18 120.525120 16 175.844230 0
H  21 1.088468 19 117.158428 18 -177.664302 0
C  21 1.356832 19 123.609279 18 2.079573 0
H  23 1.086498 21 121.748718 19 179.356730 0
C  18 1.464320 16 110.714203 1 10.053002 0
N  25 1.298915 18 114.042240 16 -6.024093 0
H  26 1.036276 25 111.485638 18 -175.692087 0
C  23 1.504932 21 121.179586 19 4.649597 0
H  28 1.110098 23 107.777107 21 105.744139 0
O  28 1.418756 23 110.074065 21 -136.948918 0
O  30 1.489344 28 108.184866 23 -165.757514 0
$end

 
 --------------------------------------------------------------
 
                    Orbital Energies (a.u.)
 --------------------------------------------------------------
 
 Alpha MOs
 -- Occupied --
******* -35.831 -31.272 -31.263 -31.239 -19.172 -19.102 -14.351
-14.335 -14.333 -14.324 -10.246 -10.245 -10.228 -10.222 -10.221
-10.197 -10.191 -10.189 -10.189 -10.188 -10.187 -10.186  -4.031
 -2.641  -2.623  -2.585  -1.040  -0.943  -0.930  -0.874  -0.867
 -0.833  -0.823  -0.791  -0.731  -0.714  -0.700  -0.693  -0.623
 -0.616  -0.581  -0.576  -0.525  -0.519  -0.503  -0.493  -0.488
 -0.474  -0.465  -0.441  -0.437  -0.429  -0.424  -0.410  -0.408
 -0.403  -0.392  -0.388  -0.369  -0.361  -0.347  -0.340  -0.332
 -0.326  -0.324  -0.323  -0.319  -0.309  -0.293  -0.289  -0.263
 -0.248  -0.235  -0.216  -0.212  -0.194  -0.186  -0.165
 -- Virtual --
 -0.072  -0.027  -0.001   0.007   0.013   0.016   0.017   0.022
  0.025   0.035   0.039   0.040   0.045   0.051   0.057   0.058
  0.061   0.067   0.072   0.078   0.082   0.087   0.092   0.097
  0.100   0.103   0.111   0.116   0.119   0.126   0.129   0.131
  0.134   0.142   0.144   0.148   0.155   0.160   0.162   0.166
  0.169   0.174   0.180   0.183   0.185   0.188   0.191   0.192
  0.197   0.198   0.204   0.207   0.212   0.216   0.218   0.224
  0.227   0.228   0.234   0.235   0.238   0.239   0.246   0.247
  0.252   0.255   0.256   0.264   0.267   0.270   0.271   0.275
  0.279   0.282   0.285   0.290   0.293   0.298   0.303   0.306
  0.310   0.319   0.319   0.323   0.324   0.329   0.333   0.338
  0.349   0.352   0.354   0.358   0.377   0.382   0.394   0.397
  0.401   0.411   0.420   0.426   0.432   0.435   0.442   0.456
  0.460   0.463   0.474   0.488   0.508   0.536   0.586   0.588
  0.592   0.631   0.654   0.664   0.676   0.680   0.686   0.700
  0.719   0.733   0.736   0.738   0.742   0.750   0.755   0.758
  0.765   0.769   0.777   0.783   0.791   0.809   0.822   0.839
  0.851   0.871   0.895   0.896   0.913   0.916   0.927   0.947
  0.950   0.954   0.964   0.967   0.977   0.980   0.990   1.000
  1.011   1.016   1.026   1.044   1.051   1.066   1.077   1.081
  1.089   1.105   1.111   1.128   1.129   1.138   1.159   1.169
  1.171   1.197   1.199   1.221   1.240   1.243   1.245   1.253
  1.261   1.274   1.282   1.291   1.306   1.317   1.327   1.334
  1.338   1.356   1.371   1.386   1.391   1.396   1.409   1.425
  1.433   1.439   1.446   1.476   1.477   1.492   1.496   1.499
  1.513   1.518   1.549   1.554   1.570   1.584   1.598   1.630
  1.656   1.679   1.694   1.719   1.729   1.745   1.754   1.787
  1.797   1.816   1.839   1.844   1.853   1.871   1.896   1.898
  1.922   1.928   1.950   1.953   1.957   1.967   1.980   1.992
  2.007   2.010   2.014   2.025   2.042   2.054   2.079   2.086
  2.101   2.107   2.121   2.124   2.133   2.163   2.183   2.187
  2.208   2.223   2.231   2.251   2.265   2.279   2.287   2.293
  2.304   2.313   2.324   2.334   2.351   2.366   2.384   2.432
  2.461   2.483   2.497   2.504   2.517   2.547   2.561   2.605
  2.612   2.619   2.641   2.643   2.653   2.680   2.682   2.710
  2.723   2.736   2.749   2.758   2.819   2.848   2.859   2.876
  2.927   2.944   2.954   2.995   2.996   3.003   3.026   3.053
  3.175   3.211   3.248   3.273   3.336   3.371   3.436   4.027
  4.164   4.244   4.251   4.292   4.305   4.314   4.344   4.357
  4.406   4.460   4.461   4.465   4.478   4.492   4.567   4.794
  4.837  33.077
 
 Beta MOs
 -- Occupied --
******* -35.826 -31.266 -31.261 -31.233 -19.172 -19.102 -14.352
-14.331 -14.329 -14.323 -10.245 -10.245 -10.229 -10.222 -10.221
-10.198 -10.189 -10.188 -10.187 -10.187 -10.187 -10.186  -4.020
 -2.626  -2.618  -2.569  -1.040  -0.943  -0.924  -0.873  -0.859
 -0.832  -0.819  -0.790  -0.729  -0.711  -0.696  -0.691  -0.622
 -0.614  -0.580  -0.574  -0.524  -0.517  -0.502  -0.492  -0.486
 -0.472  -0.464  -0.441  -0.436  -0.428  -0.423  -0.408  -0.402
 -0.396  -0.391  -0.387  -0.368  -0.359  -0.346  -0.337  -0.329
 -0.321  -0.319  -0.315  -0.308  -0.303  -0.288  -0.283  -0.242
 -0.231  -0.231  -0.215  -0.199  -0.187  -0.177
 -- Virtual --
 -0.108  -0.065  -0.022   0.007   0.008   0.015   0.017   0.022
  0.025   0.027   0.035   0.040   0.040   0.046   0.052   0.057
  0.059   0.061   0.067   0.073   0.079   0.082   0.088   0.092
  0.098   0.100   0.104   0.111   0.116   0.120   0.126   0.130
  0.131   0.134   0.143   0.145   0.149   0.155   0.162   0.163
  0.167   0.171   0.175   0.181   0.183   0.186   0.188   0.192
  0.193   0.198   0.200   0.205   0.208   0.213   0.216   0.219
  0.224   0.228   0.229   0.235   0.236   0.238   0.239   0.247
  0.248   0.252   0.256   0.256   0.265   0.268   0.271   0.271
  0.276   0.280   0.283   0.286   0.291   0.294   0.299   0.304
  0.307   0.310   0.320   0.321   0.324   0.324   0.330   0.333
  0.339   0.350   0.352   0.355   0.359   0.378   0.383   0.395
  0.398   0.402   0.412   0.420   0.426   0.433   0.436   0.443
  0.456   0.462   0.465   0.474   0.488   0.509   0.537   0.587
  0.589   0.593   0.634   0.655   0.666   0.677   0.681   0.687
  0.700   0.722   0.735   0.737   0.743   0.746   0.752   0.757
  0.761   0.767   0.772   0.779   0.784   0.793   0.811   0.823
  0.840   0.852   0.871   0.895   0.897   0.914   0.917   0.927
  0.949   0.951   0.955   0.965   0.968   0.978   0.985   0.996
  1.001   1.014   1.019   1.027   1.045   1.054   1.070   1.079
  1.083   1.091   1.106   1.112   1.129   1.130   1.139   1.161
  1.170   1.172   1.198   1.201   1.222   1.242   1.244   1.248
  1.255   1.262   1.275   1.283   1.292   1.306   1.318   1.328
  1.334   1.344   1.357   1.371   1.388   1.395   1.399   1.411
  1.426   1.435   1.441   1.450   1.477   1.482   1.494   1.498
  1.502   1.516   1.521   1.551   1.556   1.577   1.587   1.600
  1.633   1.658   1.683   1.696   1.720   1.732   1.746   1.755
  1.788   1.800   1.818   1.841   1.846   1.856   1.873   1.899
  1.904   1.923   1.928   1.951   1.955   1.960   1.970   1.982
  1.994   2.008   2.012   2.016   2.030   2.044   2.056   2.079
  2.088   2.104   2.109   2.125   2.126   2.136   2.164   2.186
  2.189   2.213   2.226   2.234   2.253   2.269   2.284   2.290
  2.296   2.307   2.316   2.327   2.336   2.353   2.368   2.387
  2.435   2.463   2.485   2.500   2.507   2.519   2.551   2.562
  2.609   2.614   2.620   2.644   2.648   2.656   2.682   2.684
  2.712   2.725   2.739   2.750   2.760   2.822   2.849   2.860
  2.877   2.928   2.945   2.956   2.996   2.999   3.006   3.027
  3.057   3.176   3.214   3.248   3.274   3.337   3.372   3.437
  4.031   4.165   4.246   4.253   4.294   4.307   4.317   4.347
  4.358   4.409   4.461   4.462   4.468   4.482   4.495   4.567
  4.796   4.838  33.082
 --------------------------------------------------------------
 
          Ground-State Mulliken Net Atomic Charges

     Atom                 Charge (a.u.)    Spin (a.u.)
  --------------------------------------------------------
      1 Ni                    0.348400       0.159703
      2 N                    -0.776495       0.242348
      3 N                    -0.815152       0.209471
      4 N                    -0.591850      -0.048140
      5 N                    -0.794794       0.011946
      6 C                     0.966309       0.019466
      7 H                     0.429835      -0.011300
      8 C                     1.033366       0.038389
      9 H                     0.430311      -0.009720
     10 C                    -0.961220       0.023292
     11 C                    -0.267261       0.078569
     12 C                    -0.274193       0.055644
     13 C                    -0.886677       0.045669
     14 C                     0.963921       0.015739
     15 H                     0.474692       0.001355
     16 C                     1.376932      -0.103045
     17 H                     0.414420      -0.001815
     18 C                    -1.395730       0.247959
     19 C                    -0.231409      -0.100233
     20 C                    -0.265137       0.171092
     21 C                    -0.810284      -0.034086
     22 H                     0.201139      -0.002903
     23 H                     0.197424      -0.004406
     24 H                     0.197216      -0.003375
     25 H                     0.200427      -0.002008
     26 H                     0.206027      -0.010166
     27 H                     0.200824       0.003173
     28 H                     0.204966      -0.007701
     29 H                     0.226900       0.010100
     30 O                    -0.231194       0.003538
     31 O                    -0.771714       0.001445
  --------------------------------------------------------
  Sum of atomic charges =    -1.000000
  Sum of spin   charges =     1.000000

 -----------------------------------------------------------------
                    Cartesian Multipole Moments
 -----------------------------------------------------------------
    Charge (ESU x 10^10)
                -4.8032
    Dipole Moment (Debye)
         X      -6.9396      Y     -21.2855      Z      -3.7135
       Tot      22.6940
    Quadrupole Moments (Debye-Ang)
        XX    -149.5417     XY     -45.4362     YY    -207.5959
        XZ     -11.9411     YZ     -16.7745     ZZ    -135.7004
    Octopole Moments (Debye-Ang^2)
       XXX      44.4196    XXY    -370.5423    XYY    -237.2037
       YYY   -1141.7727    XXZ     -37.8858    XYZ     -66.0995
       YYZ    -102.2467    XZZ      20.2043    YZZ    -265.2314
       ZZZ     -52.8657
    Hexadecapole Moments (Debye-Ang^3)
      XXXX   -7937.5360   XXXY    -371.0697   XXYY   -2593.8837
      XYYY   -1480.5661   YYYY   -6517.6148   XXXZ    -228.5330
      XXYZ    -178.4998   XYYZ    -337.8467   YYYZ    -644.2674
      XXZZ   -1576.7203   XYZZ     -68.0120   YYZZ    -879.2085
      XZZZ    -160.4706   YZZZ    -260.7231   ZZZZ    -305.3827
 -----------------------------------------------------------------
Archival summary:
1\1\n02\OPT\ProcedureUnspecified\6-31+G*\i1241212(1-,2)\nricke\ThuMar902:19:572017ThuMar902:19:572017\0\\#,OPT,ProcedureUnspecified,6-31+G*,\\-1,2\Ni\N,1,1.84472\H,2,1.01779,1,127.094\C,2,1.35262,1,116.066,3,172.558,0\C,4,1.41637,2,128.248,1,-177.368,0\H,5,1.08822,4,119.47,2,1.07399,0\C,5,1.38965,4,119.544,2,-178.667,0\H,7,1.08725,5,119.73,4,179.841,0\C,7,1.41859,5,120.777,4,0.0178641,0\H,9,1.08739,7,119.428,5,179.849,0\C,9,1.38999,7,120.954,5,-0.273432,0\H,11,1.08819,9,120.946,7,-179.745,0\C,11,1.41677,9,119.549,7,-0.100177,0\N,13,1.3515,11,128.402,9,-178.723,0\H,14,1.01735,13,116.776,11,-1.17145,0\N,1,1.8503,2,178.022,3,-87.8554,0\H,16,1.01757,1,125.592,2,-74.8699,0\C,16,1.36216,1,115.065,2,81.3697,0\C,18,1.38254,16,130.986,1,-166.707,0\H,19,1.08743,18,120.206,16,-0.453132,0\C,19,1.44791,18,120.525,16,175.844,0\H,21,1.08847,19,117.158,18,-177.664,0\C,21,1.35683,19,123.609,18,2.07957,0\H,23,1.0865,21,121.749,19,179.357,0\C,18,1.46432,16,110.714,1,10.053,0\N,25,1.29892,18,114.042,16,-6.02409,0\H,26,1.03628,25,111.486,18,-175.692,0\C,23,1.50493,21,121.18,19,4.6496,0\H,28,1.1101,23,107.777,21,105.744,0\O,28,1.41876,23,110.074,21,-136.949,0\O,30,1.48934,28,108.185,23,-165.758,0\\\@

 Total job time:  12712.48s(wall), 43710.73s(cpu) 
 Thu Mar  9 02:19:57 2017

        *************************************************************
        *                                                           *
        *  Thank you very much for using Q-Chem.  Have a nice day.  *
        *                                                           *
        *************************************************************


